V -t * -v 1.0a5 -a 0
A -t * -n 1 -p 0 -o 0x7fffffff -c 30 -a 1
A -t * -h 1 -m 1073741823 -s 0
c -t * -i 1 -n Blue
c -t * -i 2 -n Red
n -t * -a 0 -s 0 -S UP -v circle -c black -i black
n -t * -a 1 -s 1 -S UP -v circle -c black -i black
n -t * -a 2 -s 2 -S UP -v circle -c black -i black
n -t * -a 3 -s 3 -S UP -v circle -c black -i black
l -t * -s 0 -d 2 -S UP -r 2000000 -D 0.01 -c black -o right-down
l -t * -s 1 -d 2 -S UP -r 2000000 -D 0.01 -c black -o right-up
l -t * -s 2 -d 3 -S UP -r 3000000 -D 0.02 -c black -o right
q -t * -s 3 -d 2 -a 0.5
q -t * -s 2 -d 3 -a 0.5
n -t 0 -s 0 -S DLABEL -l "ftp-source" -L ""
n -t 0 -s 1 -S DLABEL -l "cbr-source" -L ""
n -t 0 -s 2 -S DLABEL -l "router" -L ""
n -t 0 -s 3 -S DLABEL -l "destination" -L ""
+ -t 0.1 -s 1 -d 2 -p cbr -e 1000 -c 2 -i 0 -a 2 -x {1.0 3.1 0 ------- null}
- -t 0.1 -s 1 -d 2 -p cbr -e 1000 -c 2 -i 0 -a 2 -x {1.0 3.1 0 ------- null}
h -t 0.1 -s 1 -d 2 -p cbr -e 1000 -c 2 -i 0 -a 2 -x {1.0 3.1 -1 ------- null}
+ -t 0.1 -s 1 -d 2 -p cbr -e 1000 -c 2 -i 1 -a 2 -x {1.0 3.1 1 ------- null}
+ -t 0.1 -s 1 -d 2 -p cbr -e 400 -c 2 -i 2 -a 2 -x {1.0 3.1 2 ------- null}
+ -t 0.1 -s 0 -d 2 -p tcp -e 40 -c 1 -i 3 -a 1 -x {0.0 3.0 0 ------- null}
- -t 0.1 -s 0 -d 2 -p tcp -e 40 -c 1 -i 3 -a 1 -x {0.0 3.0 0 ------- null}
h -t 0.1 -s 0 -d 2 -p tcp -e 40 -c 1 -i 3 -a 1 -x {0.0 3.0 -1 ------- null}
- -t 0.104 -s 1 -d 2 -p cbr -e 1000 -c 2 -i 1 -a 2 -x {1.0 3.1 1 ------- null}
h -t 0.104 -s 1 -d 2 -p cbr -e 1000 -c 2 -i 1 -a 2 -x {1.0 3.1 -1 ------- null}
- -t 0.108 -s 1 -d 2 -p cbr -e 400 -c 2 -i 2 -a 2 -x {1.0 3.1 2 ------- null}
h -t 0.108 -s 1 -d 2 -p cbr -e 400 -c 2 -i 2 -a 2 -x {1.0 3.1 -1 ------- null}
+ -t 0.11 -s 1 -d 2 -p cbr -e 1000 -c 2 -i 4 -a 2 -x {1.0 3.1 3 ------- null}
- -t 0.11 -s 1 -d 2 -p cbr -e 1000 -c 2 -i 4 -a 2 -x {1.0 3.1 3 ------- null}
h -t 0.11 -s 1 -d 2 -p cbr -e 1000 -c 2 -i 4 -a 2 -x {1.0 3.1 -1 ------- null}
+ -t 0.11 -s 1 -d 2 -p cbr -e 1000 -c 2 -i 5 -a 2 -x {1.0 3.1 4 ------- null}
+ -t 0.11 -s 1 -d 2 -p cbr -e 400 -c 2 -i 6 -a 2 -x {1.0 3.1 5 ------- null}
r -t 0.11016 -s 0 -d 2 -p tcp -e 40 -c 1 -i 3 -a 1 -x {0.0 3.0 0 ------- null}
+ -t 0.11016 -s 2 -d 3 -p tcp -e 40 -c 1 -i 3 -a 1 -x {0.0 3.0 0 ------- null}
- -t 0.11016 -s 2 -d 3 -p tcp -e 40 -c 1 -i 3 -a 1 -x {0.0 3.0 0 ------- null}
h -t 0.11016 -s 2 -d 3 -p tcp -e 40 -c 1 -i 3 -a 1 -x {0.0 3.0 -1 ------- null}
r -t 0.114 -s 1 -d 2 -p cbr -e 1000 -c 2 -i 0 -a 2 -x {1.0 3.1 0 ------- null}
+ -t 0.114 -s 2 -d 3 -p cbr -e 1000 -c 2 -i 0 -a 2 -x {1.0 3.1 0 ------- null}
- -t 0.114 -s 2 -d 3 -p cbr -e 1000 -c 2 -i 0 -a 2 -x {1.0 3.1 0 ------- null}
h -t 0.114 -s 2 -d 3 -p cbr -e 1000 -c 2 -i 0 -a 2 -x {1.0 3.1 -1 ------- null}
- -t 0.114 -s 1 -d 2 -p cbr -e 1000 -c 2 -i 5 -a 2 -x {1.0 3.1 4 ------- null}
h -t 0.114 -s 1 -d 2 -p cbr -e 1000 -c 2 -i 5 -a 2 -x {1.0 3.1 -1 ------- null}
r -t 0.118 -s 1 -d 2 -p cbr -e 1000 -c 2 -i 1 -a 2 -x {1.0 3.1 1 ------- null}
+ -t 0.118 -s 2 -d 3 -p cbr -e 1000 -c 2 -i 1 -a 2 -x {1.0 3.1 1 ------- null}
- -t 0.118 -s 2 -d 3 -p cbr -e 1000 -c 2 -i 1 -a 2 -x {1.0 3.1 1 ------- null}
h -t 0.118 -s 2 -d 3 -p cbr -e 1000 -c 2 -i 1 -a 2 -x {1.0 3.1 -1 ------- null}
- -t 0.118 -s 1 -d 2 -p cbr -e 400 -c 2 -i 6 -a 2 -x {1.0 3.1 5 ------- null}
h -t 0.118 -s 1 -d 2 -p cbr -e 400 -c 2 -i 6 -a 2 -x {1.0 3.1 -1 ------- null}
r -t 0.1196 -s 1 -d 2 -p cbr -e 400 -c 2 -i 2 -a 2 -x {1.0 3.1 2 ------- null}
+ -t 0.1196 -s 2 -d 3 -p cbr -e 400 -c 2 -i 2 -a 2 -x {1.0 3.1 2 ------- null}
+ -t 0.12 -s 1 -d 2 -p cbr -e 1000 -c 2 -i 7 -a 2 -x {1.0 3.1 6 ------- null}
- -t 0.12 -s 1 -d 2 -p cbr -e 1000 -c 2 -i 7 -a 2 -x {1.0 3.1 6 ------- null}
h -t 0.12 -s 1 -d 2 -p cbr -e 1000 -c 2 -i 7 -a 2 -x {1.0 3.1 -1 ------- null}
+ -t 0.12 -s 1 -d 2 -p cbr -e 1000 -c 2 -i 8 -a 2 -x {1.0 3.1 7 ------- null}
+ -t 0.12 -s 1 -d 2 -p cbr -e 400 -c 2 -i 9 -a 2 -x {1.0 3.1 8 ------- null}
- -t 0.120666666666667 -s 2 -d 3 -p cbr -e 400 -c 2 -i 2 -a 2 -x {1.0 3.1 2 ------- null}
h -t 0.120666666666667 -s 2 -d 3 -p cbr -e 400 -c 2 -i 2 -a 2 -x {1.0 3.1 -1 ------- null}
r -t 0.124 -s 1 -d 2 -p cbr -e 1000 -c 2 -i 4 -a 2 -x {1.0 3.1 3 ------- null}
+ -t 0.124 -s 2 -d 3 -p cbr -e 1000 -c 2 -i 4 -a 2 -x {1.0 3.1 3 ------- null}
- -t 0.124 -s 2 -d 3 -p cbr -e 1000 -c 2 -i 4 -a 2 -x {1.0 3.1 3 ------- null}
h -t 0.124 -s 2 -d 3 -p cbr -e 1000 -c 2 -i 4 -a 2 -x {1.0 3.1 -1 ------- null}
- -t 0.124 -s 1 -d 2 -p cbr -e 1000 -c 2 -i 8 -a 2 -x {1.0 3.1 7 ------- null}
h -t 0.124 -s 1 -d 2 -p cbr -e 1000 -c 2 -i 8 -a 2 -x {1.0 3.1 -1 ------- null}
r -t 0.128 -s 1 -d 2 -p cbr -e 1000 -c 2 -i 5 -a 2 -x {1.0 3.1 4 ------- null}
+ -t 0.128 -s 2 -d 3 -p cbr -e 1000 -c 2 -i 5 -a 2 -x {1.0 3.1 4 ------- null}
- -t 0.128 -s 2 -d 3 -p cbr -e 1000 -c 2 -i 5 -a 2 -x {1.0 3.1 4 ------- null}
h -t 0.128 -s 2 -d 3 -p cbr -e 1000 -c 2 -i 5 -a 2 -x {1.0 3.1 -1 ------- null}
- -t 0.128 -s 1 -d 2 -p cbr -e 400 -c 2 -i 9 -a 2 -x {1.0 3.1 8 ------- null}
h -t 0.128 -s 1 -d 2 -p cbr -e 400 -c 2 -i 9 -a 2 -x {1.0 3.1 -1 ------- null}
r -t 0.1296 -s 1 -d 2 -p cbr -e 400 -c 2 -i 6 -a 2 -x {1.0 3.1 5 ------- null}
+ -t 0.1296 -s 2 -d 3 -p cbr -e 400 -c 2 -i 6 -a 2 -x {1.0 3.1 5 ------- null}
+ -t 0.13 -s 1 -d 2 -p cbr -e 1000 -c 2 -i 10 -a 2 -x {1.0 3.1 9 ------- null}
- -t 0.13 -s 1 -d 2 -p cbr -e 1000 -c 2 -i 10 -a 2 -x {1.0 3.1 9 ------- null}
h -t 0.13 -s 1 -d 2 -p cbr -e 1000 -c 2 -i 10 -a 2 -x {1.0 3.1 -1 ------- null}
+ -t 0.13 -s 1 -d 2 -p cbr -e 1000 -c 2 -i 11 -a 2 -x {1.0 3.1 10 ------- null}
+ -t 0.13 -s 1 -d 2 -p cbr -e 400 -c 2 -i 12 -a 2 -x {1.0 3.1 11 ------- null}
r -t 0.130266666666667 -s 2 -d 3 -p tcp -e 40 -c 1 -i 3 -a 1 -x {0.0 3.0 0 ------- null}
+ -t 0.130266666666667 -s 3 -d 2 -p ack -e 40 -c 1 -i 13 -a 1 -x {3.0 0.0 0 ------- null}
- -t 0.130266666666667 -s 3 -d 2 -p ack -e 40 -c 1 -i 13 -a 1 -x {3.0 0.0 0 ------- null}
h -t 0.130266666666667 -s 3 -d 2 -p ack -e 40 -c 1 -i 13 -a 1 -x {3.0 0.0 -1 ------- null}
- -t 0.130666666666667 -s 2 -d 3 -p cbr -e 400 -c 2 -i 6 -a 2 -x {1.0 3.1 5 ------- null}
h -t 0.130666666666667 -s 2 -d 3 -p cbr -e 400 -c 2 -i 6 -a 2 -x {1.0 3.1 -1 ------- null}
r -t 0.134 -s 1 -d 2 -p cbr -e 1000 -c 2 -i 7 -a 2 -x {1.0 3.1 6 ------- null}
+ -t 0.134 -s 2 -d 3 -p cbr -e 1000 -c 2 -i 7 -a 2 -x {1.0 3.1 6 ------- null}
- -t 0.134 -s 2 -d 3 -p cbr -e 1000 -c 2 -i 7 -a 2 -x {1.0 3.1 6 ------- null}
h -t 0.134 -s 2 -d 3 -p cbr -e 1000 -c 2 -i 7 -a 2 -x {1.0 3.1 -1 ------- null}
- -t 0.134 -s 1 -d 2 -p cbr -e 1000 -c 2 -i 11 -a 2 -x {1.0 3.1 10 ------- null}
h -t 0.134 -s 1 -d 2 -p cbr -e 1000 -c 2 -i 11 -a 2 -x {1.0 3.1 -1 ------- null}
r -t 0.136666666666667 -s 2 -d 3 -p cbr -e 1000 -c 2 -i 0 -a 2 -x {1.0 3.1 0 ------- null}
r -t 0.138 -s 1 -d 2 -p cbr -e 1000 -c 2 -i 8 -a 2 -x {1.0 3.1 7 ------- null}
+ -t 0.138 -s 2 -d 3 -p cbr -e 1000 -c 2 -i 8 -a 2 -x {1.0 3.1 7 ------- null}
- -t 0.138 -s 2 -d 3 -p cbr -e 1000 -c 2 -i 8 -a 2 -x {1.0 3.1 7 ------- null}
h -t 0.138 -s 2 -d 3 -p cbr -e 1000 -c 2 -i 8 -a 2 -x {1.0 3.1 -1 ------- null}
- -t 0.138 -s 1 -d 2 -p cbr -e 400 -c 2 -i 12 -a 2 -x {1.0 3.1 11 ------- null}
h -t 0.138 -s 1 -d 2 -p cbr -e 400 -c 2 -i 12 -a 2 -x {1.0 3.1 -1 ------- null}
r -t 0.1396 -s 1 -d 2 -p cbr -e 400 -c 2 -i 9 -a 2 -x {1.0 3.1 8 ------- null}
+ -t 0.1396 -s 2 -d 3 -p cbr -e 400 -c 2 -i 9 -a 2 -x {1.0 3.1 8 ------- null}
+ -t 0.14 -s 1 -d 2 -p cbr -e 1000 -c 2 -i 14 -a 2 -x {1.0 3.1 12 ------- null}
- -t 0.14 -s 1 -d 2 -p cbr -e 1000 -c 2 -i 14 -a 2 -x {1.0 3.1 12 ------- null}
h -t 0.14 -s 1 -d 2 -p cbr -e 1000 -c 2 -i 14 -a 2 -x {1.0 3.1 -1 ------- null}
+ -t 0.14 -s 1 -d 2 -p cbr -e 1000 -c 2 -i 15 -a 2 -x {1.0 3.1 13 ------- null}
+ -t 0.14 -s 1 -d 2 -p cbr -e 400 -c 2 -i 16 -a 2 -x {1.0 3.1 14 ------- null}
r -t 0.140666666666667 -s 2 -d 3 -p cbr -e 1000 -c 2 -i 1 -a 2 -x {1.0 3.1 1 ------- null}
- -t 0.140666666666667 -s 2 -d 3 -p cbr -e 400 -c 2 -i 9 -a 2 -x {1.0 3.1 8 ------- null}
h -t 0.140666666666667 -s 2 -d 3 -p cbr -e 400 -c 2 -i 9 -a 2 -x {1.0 3.1 -1 ------- null}
r -t 0.141733333333333 -s 2 -d 3 -p cbr -e 400 -c 2 -i 2 -a 2 -x {1.0 3.1 2 ------- null}
r -t 0.144 -s 1 -d 2 -p cbr -e 1000 -c 2 -i 10 -a 2 -x {1.0 3.1 9 ------- null}
+ -t 0.144 -s 2 -d 3 -p cbr -e 1000 -c 2 -i 10 -a 2 -x {1.0 3.1 9 ------- null}
- -t 0.144 -s 2 -d 3 -p cbr -e 1000 -c 2 -i 10 -a 2 -x {1.0 3.1 9 ------- null}
h -t 0.144 -s 2 -d 3 -p cbr -e 1000 -c 2 -i 10 -a 2 -x {1.0 3.1 -1 ------- null}
- -t 0.144 -s 1 -d 2 -p cbr -e 1000 -c 2 -i 15 -a 2 -x {1.0 3.1 13 ------- null}
h -t 0.144 -s 1 -d 2 -p cbr -e 1000 -c 2 -i 15 -a 2 -x {1.0 3.1 -1 ------- null}
r -t 0.146666666666667 -s 2 -d 3 -p cbr -e 1000 -c 2 -i 4 -a 2 -x {1.0 3.1 3 ------- null}
r -t 0.148 -s 1 -d 2 -p cbr -e 1000 -c 2 -i 11 -a 2 -x {1.0 3.1 10 ------- null}
+ -t 0.148 -s 2 -d 3 -p cbr -e 1000 -c 2 -i 11 -a 2 -x {1.0 3.1 10 ------- null}
- -t 0.148 -s 2 -d 3 -p cbr -e 1000 -c 2 -i 11 -a 2 -x {1.0 3.1 10 ------- null}
h -t 0.148 -s 2 -d 3 -p cbr -e 1000 -c 2 -i 11 -a 2 -x {1.0 3.1 -1 ------- null}
- -t 0.148 -s 1 -d 2 -p cbr -e 400 -c 2 -i 16 -a 2 -x {1.0 3.1 14 ------- null}
h -t 0.148 -s 1 -d 2 -p cbr -e 400 -c 2 -i 16 -a 2 -x {1.0 3.1 -1 ------- null}
r -t 0.1496 -s 1 -d 2 -p cbr -e 400 -c 2 -i 12 -a 2 -x {1.0 3.1 11 ------- null}
+ -t 0.1496 -s 2 -d 3 -p cbr -e 400 -c 2 -i 12 -a 2 -x {1.0 3.1 11 ------- null}
+ -t 0.15 -s 1 -d 2 -p cbr -e 1000 -c 2 -i 17 -a 2 -x {1.0 3.1 15 ------- null}
- -t 0.15 -s 1 -d 2 -p cbr -e 1000 -c 2 -i 17 -a 2 -x {1.0 3.1 15 ------- null}
h -t 0.15 -s 1 -d 2 -p cbr -e 1000 -c 2 -i 17 -a 2 -x {1.0 3.1 -1 ------- null}
+ -t 0.15 -s 1 -d 2 -p cbr -e 1000 -c 2 -i 18 -a 2 -x {1.0 3.1 16 ------- null}
+ -t 0.15 -s 1 -d 2 -p cbr -e 400 -c 2 -i 19 -a 2 -x {1.0 3.1 17 ------- null}
r -t 0.150373333333333 -s 3 -d 2 -p ack -e 40 -c 1 -i 13 -a 1 -x {3.0 0.0 0 ------- null}
+ -t 0.150373333333333 -s 2 -d 0 -p ack -e 40 -c 1 -i 13 -a 1 -x {3.0 0.0 0 ------- null}
- -t 0.150373333333333 -s 2 -d 0 -p ack -e 40 -c 1 -i 13 -a 1 -x {3.0 0.0 0 ------- null}
h -t 0.150373333333333 -s 2 -d 0 -p ack -e 40 -c 1 -i 13 -a 1 -x {3.0 0.0 -1 ------- null}
r -t 0.150666666666667 -s 2 -d 3 -p cbr -e 1000 -c 2 -i 5 -a 2 -x {1.0 3.1 4 ------- null}
- -t 0.150666666666667 -s 2 -d 3 -p cbr -e 400 -c 2 -i 12 -a 2 -x {1.0 3.1 11 ------- null}
h -t 0.150666666666667 -s 2 -d 3 -p cbr -e 400 -c 2 -i 12 -a 2 -x {1.0 3.1 -1 ------- null}
r -t 0.151733333333333 -s 2 -d 3 -p cbr -e 400 -c 2 -i 6 -a 2 -x {1.0 3.1 5 ------- null}
r -t 0.154 -s 1 -d 2 -p cbr -e 1000 -c 2 -i 14 -a 2 -x {1.0 3.1 12 ------- null}
+ -t 0.154 -s 2 -d 3 -p cbr -e 1000 -c 2 -i 14 -a 2 -x {1.0 3.1 12 ------- null}
- -t 0.154 -s 2 -d 3 -p cbr -e 1000 -c 2 -i 14 -a 2 -x {1.0 3.1 12 ------- null}
h -t 0.154 -s 2 -d 3 -p cbr -e 1000 -c 2 -i 14 -a 2 -x {1.0 3.1 -1 ------- null}
- -t 0.154 -s 1 -d 2 -p cbr -e 1000 -c 2 -i 18 -a 2 -x {1.0 3.1 16 ------- null}
h -t 0.154 -s 1 -d 2 -p cbr -e 1000 -c 2 -i 18 -a 2 -x {1.0 3.1 -1 ------- null}
r -t 0.156666666666667 -s 2 -d 3 -p cbr -e 1000 -c 2 -i 7 -a 2 -x {1.0 3.1 6 ------- null}
r -t 0.158 -s 1 -d 2 -p cbr -e 1000 -c 2 -i 15 -a 2 -x {1.0 3.1 13 ------- null}
+ -t 0.158 -s 2 -d 3 -p cbr -e 1000 -c 2 -i 15 -a 2 -x {1.0 3.1 13 ------- null}
- -t 0.158 -s 2 -d 3 -p cbr -e 1000 -c 2 -i 15 -a 2 -x {1.0 3.1 13 ------- null}
h -t 0.158 -s 2 -d 3 -p cbr -e 1000 -c 2 -i 15 -a 2 -x {1.0 3.1 -1 ------- null}
- -t 0.158 -s 1 -d 2 -p cbr -e 400 -c 2 -i 19 -a 2 -x {1.0 3.1 17 ------- null}
h -t 0.158 -s 1 -d 2 -p cbr -e 400 -c 2 -i 19 -a 2 -x {1.0 3.1 -1 ------- null}
r -t 0.1596 -s 1 -d 2 -p cbr -e 400 -c 2 -i 16 -a 2 -x {1.0 3.1 14 ------- null}
+ -t 0.1596 -s 2 -d 3 -p cbr -e 400 -c 2 -i 16 -a 2 -x {1.0 3.1 14 ------- null}
+ -t 0.16 -s 1 -d 2 -p cbr -e 1000 -c 2 -i 20 -a 2 -x {1.0 3.1 18 ------- null}
- -t 0.16 -s 1 -d 2 -p cbr -e 1000 -c 2 -i 20 -a 2 -x {1.0 3.1 18 ------- null}
h -t 0.16 -s 1 -d 2 -p cbr -e 1000 -c 2 -i 20 -a 2 -x {1.0 3.1 -1 ------- null}
+ -t 0.16 -s 1 -d 2 -p cbr -e 1000 -c 2 -i 21 -a 2 -x {1.0 3.1 19 ------- null}
+ -t 0.16 -s 1 -d 2 -p cbr -e 400 -c 2 -i 22 -a 2 -x {1.0 3.1 20 ------- null}
r -t 0.160533333333333 -s 2 -d 0 -p ack -e 40 -c 1 -i 13 -a 1 -x {3.0 0.0 0 ------- null}
+ -t 0.160533333333333 -s 0 -d 2 -p tcp -e 1040 -c 1 -i 23 -a 1 -x {0.0 3.0 1 ------- null}
- -t 0.160533333333333 -s 0 -d 2 -p tcp -e 1040 -c 1 -i 23 -a 1 -x {0.0 3.0 1 ------- null}
h -t 0.160533333333333 -s 0 -d 2 -p tcp -e 1040 -c 1 -i 23 -a 1 -x {0.0 3.0 -1 ------- null}
+ -t 0.160533333333333 -s 0 -d 2 -p tcp -e 1040 -c 1 -i 24 -a 1 -x {0.0 3.0 2 ------- null}
+ -t 0.160533333333333 -s 0 -d 2 -p tcp -e 1040 -c 1 -i 25 -a 1 -x {0.0 3.0 3 ------- null}
+ -t 0.160533333333333 -s 0 -d 2 -p tcp -e 1040 -c 1 -i 26 -a 1 -x {0.0 3.0 4 ------- null}
+ -t 0.160533333333333 -s 0 -d 2 -p tcp -e 1040 -c 1 -i 27 -a 1 -x {0.0 3.0 5 ------- null}
+ -t 0.160533333333333 -s 0 -d 2 -p tcp -e 1040 -c 1 -i 28 -a 1 -x {0.0 3.0 6 ------- null}
+ -t 0.160533333333333 -s 0 -d 2 -p tcp -e 1040 -c 1 -i 29 -a 1 -x {0.0 3.0 7 ------- null}
+ -t 0.160533333333333 -s 0 -d 2 -p tcp -e 1040 -c 1 -i 30 -a 1 -x {0.0 3.0 8 ------- null}
+ -t 0.160533333333333 -s 0 -d 2 -p tcp -e 1040 -c 1 -i 31 -a 1 -x {0.0 3.0 9 ------- null}
+ -t 0.160533333333333 -s 0 -d 2 -p tcp -e 1040 -c 1 -i 32 -a 1 -x {0.0 3.0 10 ------- null}
+ -t 0.160533333333333 -s 0 -d 2 -p tcp -e 1040 -c 1 -i 33 -a 1 -x {0.0 3.0 11 ------- null}
+ -t 0.160533333333333 -s 0 -d 2 -p tcp -e 1040 -c 1 -i 34 -a 1 -x {0.0 3.0 12 ------- null}
+ -t 0.160533333333333 -s 0 -d 2 -p tcp -e 1040 -c 1 -i 35 -a 1 -x {0.0 3.0 13 ------- null}
+ -t 0.160533333333333 -s 0 -d 2 -p tcp -e 1040 -c 1 -i 36 -a 1 -x {0.0 3.0 14 ------- null}
+ -t 0.160533333333333 -s 0 -d 2 -p tcp -e 1040 -c 1 -i 37 -a 1 -x {0.0 3.0 15 ------- null}
+ -t 0.160533333333333 -s 0 -d 2 -p tcp -e 1040 -c 1 -i 38 -a 1 -x {0.0 3.0 16 ------- null}
+ -t 0.160533333333333 -s 0 -d 2 -p tcp -e 1040 -c 1 -i 39 -a 1 -x {0.0 3.0 17 ------- null}
+ -t 0.160533333333333 -s 0 -d 2 -p tcp -e 1040 -c 1 -i 40 -a 1 -x {0.0 3.0 18 ------- null}
+ -t 0.160533333333333 -s 0 -d 2 -p tcp -e 1040 -c 1 -i 41 -a 1 -x {0.0 3.0 19 ------- null}
+ -t 0.160533333333333 -s 0 -d 2 -p tcp -e 1040 -c 1 -i 42 -a 1 -x {0.0 3.0 20 ------- null}
r -t 0.160666666666667 -s 2 -d 3 -p cbr -e 1000 -c 2 -i 8 -a 2 -x {1.0 3.1 7 ------- null}
- -t 0.160666666666667 -s 2 -d 3 -p cbr -e 400 -c 2 -i 16 -a 2 -x {1.0 3.1 14 ------- null}
h -t 0.160666666666667 -s 2 -d 3 -p cbr -e 400 -c 2 -i 16 -a 2 -x {1.0 3.1 -1 ------- null}
r -t 0.161733333333333 -s 2 -d 3 -p cbr -e 400 -c 2 -i 9 -a 2 -x {1.0 3.1 8 ------- null}
r -t 0.164 -s 1 -d 2 -p cbr -e 1000 -c 2 -i 17 -a 2 -x {1.0 3.1 15 ------- null}
+ -t 0.164 -s 2 -d 3 -p cbr -e 1000 -c 2 -i 17 -a 2 -x {1.0 3.1 15 ------- null}
- -t 0.164 -s 2 -d 3 -p cbr -e 1000 -c 2 -i 17 -a 2 -x {1.0 3.1 15 ------- null}
h -t 0.164 -s 2 -d 3 -p cbr -e 1000 -c 2 -i 17 -a 2 -x {1.0 3.1 -1 ------- null}
- -t 0.164 -s 1 -d 2 -p cbr -e 1000 -c 2 -i 21 -a 2 -x {1.0 3.1 19 ------- null}
h -t 0.164 -s 1 -d 2 -p cbr -e 1000 -c 2 -i 21 -a 2 -x {1.0 3.1 -1 ------- null}
- -t 0.164693333333333 -s 0 -d 2 -p tcp -e 1040 -c 1 -i 24 -a 1 -x {0.0 3.0 2 ------- null}
h -t 0.164693333333333 -s 0 -d 2 -p tcp -e 1040 -c 1 -i 24 -a 1 -x {0.0 3.0 -1 ------- null}
r -t 0.166666666666667 -s 2 -d 3 -p cbr -e 1000 -c 2 -i 10 -a 2 -x {1.0 3.1 9 ------- null}
r -t 0.168 -s 1 -d 2 -p cbr -e 1000 -c 2 -i 18 -a 2 -x {1.0 3.1 16 ------- null}
+ -t 0.168 -s 2 -d 3 -p cbr -e 1000 -c 2 -i 18 -a 2 -x {1.0 3.1 16 ------- null}
- -t 0.168 -s 2 -d 3 -p cbr -e 1000 -c 2 -i 18 -a 2 -x {1.0 3.1 16 ------- null}
h -t 0.168 -s 2 -d 3 -p cbr -e 1000 -c 2 -i 18 -a 2 -x {1.0 3.1 -1 ------- null}
- -t 0.168 -s 1 -d 2 -p cbr -e 400 -c 2 -i 22 -a 2 -x {1.0 3.1 20 ------- null}
h -t 0.168 -s 1 -d 2 -p cbr -e 400 -c 2 -i 22 -a 2 -x {1.0 3.1 -1 ------- null}
- -t 0.168853333333333 -s 0 -d 2 -p tcp -e 1040 -c 1 -i 25 -a 1 -x {0.0 3.0 3 ------- null}
h -t 0.168853333333333 -s 0 -d 2 -p tcp -e 1040 -c 1 -i 25 -a 1 -x {0.0 3.0 -1 ------- null}
r -t 0.1696 -s 1 -d 2 -p cbr -e 400 -c 2 -i 19 -a 2 -x {1.0 3.1 17 ------- null}
+ -t 0.1696 -s 2 -d 3 -p cbr -e 400 -c 2 -i 19 -a 2 -x {1.0 3.1 17 ------- null}
+ -t 0.17 -s 1 -d 2 -p cbr -e 1000 -c 2 -i 43 -a 2 -x {1.0 3.1 21 ------- null}
- -t 0.17 -s 1 -d 2 -p cbr -e 1000 -c 2 -i 43 -a 2 -x {1.0 3.1 21 ------- null}
h -t 0.17 -s 1 -d 2 -p cbr -e 1000 -c 2 -i 43 -a 2 -x {1.0 3.1 -1 ------- null}
+ -t 0.17 -s 1 -d 2 -p cbr -e 1000 -c 2 -i 44 -a 2 -x {1.0 3.1 22 ------- null}
+ -t 0.17 -s 1 -d 2 -p cbr -e 400 -c 2 -i 45 -a 2 -x {1.0 3.1 23 ------- null}
r -t 0.170666666666667 -s 2 -d 3 -p cbr -e 1000 -c 2 -i 11 -a 2 -x {1.0 3.1 10 ------- null}
- -t 0.170666666666667 -s 2 -d 3 -p cbr -e 400 -c 2 -i 19 -a 2 -x {1.0 3.1 17 ------- null}
h -t 0.170666666666667 -s 2 -d 3 -p cbr -e 400 -c 2 -i 19 -a 2 -x {1.0 3.1 -1 ------- null}
r -t 0.171733333333333 -s 2 -d 3 -p cbr -e 400 -c 2 -i 12 -a 2 -x {1.0 3.1 11 ------- null}
- -t 0.173013333333333 -s 0 -d 2 -p tcp -e 1040 -c 1 -i 26 -a 1 -x {0.0 3.0 4 ------- null}
h -t 0.173013333333333 -s 0 -d 2 -p tcp -e 1040 -c 1 -i 26 -a 1 -x {0.0 3.0 -1 ------- null}
r -t 0.174 -s 1 -d 2 -p cbr -e 1000 -c 2 -i 20 -a 2 -x {1.0 3.1 18 ------- null}
+ -t 0.174 -s 2 -d 3 -p cbr -e 1000 -c 2 -i 20 -a 2 -x {1.0 3.1 18 ------- null}
- -t 0.174 -s 2 -d 3 -p cbr -e 1000 -c 2 -i 20 -a 2 -x {1.0 3.1 18 ------- null}
h -t 0.174 -s 2 -d 3 -p cbr -e 1000 -c 2 -i 20 -a 2 -x {1.0 3.1 -1 ------- null}
- -t 0.174 -s 1 -d 2 -p cbr -e 1000 -c 2 -i 44 -a 2 -x {1.0 3.1 22 ------- null}
h -t 0.174 -s 1 -d 2 -p cbr -e 1000 -c 2 -i 44 -a 2 -x {1.0 3.1 -1 ------- null}
r -t 0.174693333333333 -s 0 -d 2 -p tcp -e 1040 -c 1 -i 23 -a 1 -x {0.0 3.0 1 ------- null}
+ -t 0.174693333333333 -s 2 -d 3 -p tcp -e 1040 -c 1 -i 23 -a 1 -x {0.0 3.0 1 ------- null}
r -t 0.176666666666667 -s 2 -d 3 -p cbr -e 1000 -c 2 -i 14 -a 2 -x {1.0 3.1 12 ------- null}
- -t 0.176666666666667 -s 2 -d 3 -p tcp -e 1040 -c 1 -i 23 -a 1 -x {0.0 3.0 1 ------- null}
h -t 0.176666666666667 -s 2 -d 3 -p tcp -e 1040 -c 1 -i 23 -a 1 -x {0.0 3.0 -1 ------- null}
- -t 0.177173333333333 -s 0 -d 2 -p tcp -e 1040 -c 1 -i 27 -a 1 -x {0.0 3.0 5 ------- null}
h -t 0.177173333333333 -s 0 -d 2 -p tcp -e 1040 -c 1 -i 27 -a 1 -x {0.0 3.0 -1 ------- null}
r -t 0.178 -s 1 -d 2 -p cbr -e 1000 -c 2 -i 21 -a 2 -x {1.0 3.1 19 ------- null}
+ -t 0.178 -s 2 -d 3 -p cbr -e 1000 -c 2 -i 21 -a 2 -x {1.0 3.1 19 ------- null}
- -t 0.178 -s 1 -d 2 -p cbr -e 400 -c 2 -i 45 -a 2 -x {1.0 3.1 23 ------- null}
h -t 0.178 -s 1 -d 2 -p cbr -e 400 -c 2 -i 45 -a 2 -x {1.0 3.1 -1 ------- null}
r -t 0.178853333333333 -s 0 -d 2 -p tcp -e 1040 -c 1 -i 24 -a 1 -x {0.0 3.0 2 ------- null}
+ -t 0.178853333333333 -s 2 -d 3 -p tcp -e 1040 -c 1 -i 24 -a 1 -x {0.0 3.0 2 ------- null}
- -t 0.17944 -s 2 -d 3 -p cbr -e 1000 -c 2 -i 21 -a 2 -x {1.0 3.1 19 ------- null}
h -t 0.17944 -s 2 -d 3 -p cbr -e 1000 -c 2 -i 21 -a 2 -x {1.0 3.1 -1 ------- null}
r -t 0.1796 -s 1 -d 2 -p cbr -e 400 -c 2 -i 22 -a 2 -x {1.0 3.1 20 ------- null}
+ -t 0.1796 -s 2 -d 3 -p cbr -e 400 -c 2 -i 22 -a 2 -x {1.0 3.1 20 ------- null}
+ -t 0.18 -s 1 -d 2 -p cbr -e 1000 -c 2 -i 46 -a 2 -x {1.0 3.1 24 ------- null}
- -t 0.18 -s 1 -d 2 -p cbr -e 1000 -c 2 -i 46 -a 2 -x {1.0 3.1 24 ------- null}
h -t 0.18 -s 1 -d 2 -p cbr -e 1000 -c 2 -i 46 -a 2 -x {1.0 3.1 -1 ------- null}
+ -t 0.18 -s 1 -d 2 -p cbr -e 1000 -c 2 -i 47 -a 2 -x {1.0 3.1 25 ------- null}
+ -t 0.18 -s 1 -d 2 -p cbr -e 400 -c 2 -i 48 -a 2 -x {1.0 3.1 26 ------- null}
r -t 0.180666666666667 -s 2 -d 3 -p cbr -e 1000 -c 2 -i 15 -a 2 -x {1.0 3.1 13 ------- null}
- -t 0.181333333333333 -s 0 -d 2 -p tcp -e 1040 -c 1 -i 28 -a 1 -x {0.0 3.0 6 ------- null}
h -t 0.181333333333333 -s 0 -d 2 -p tcp -e 1040 -c 1 -i 28 -a 1 -x {0.0 3.0 -1 ------- null}
r -t 0.181733333333333 -s 2 -d 3 -p cbr -e 400 -c 2 -i 16 -a 2 -x {1.0 3.1 14 ------- null}
- -t 0.182106666666667 -s 2 -d 3 -p tcp -e 1040 -c 1 -i 24 -a 1 -x {0.0 3.0 2 ------- null}
h -t 0.182106666666667 -s 2 -d 3 -p tcp -e 1040 -c 1 -i 24 -a 1 -x {0.0 3.0 -1 ------- null}
r -t 0.183013333333333 -s 0 -d 2 -p tcp -e 1040 -c 1 -i 25 -a 1 -x {0.0 3.0 3 ------- null}
+ -t 0.183013333333333 -s 2 -d 3 -p tcp -e 1040 -c 1 -i 25 -a 1 -x {0.0 3.0 3 ------- null}
r -t 0.184 -s 1 -d 2 -p cbr -e 1000 -c 2 -i 43 -a 2 -x {1.0 3.1 21 ------- null}
+ -t 0.184 -s 2 -d 3 -p cbr -e 1000 -c 2 -i 43 -a 2 -x {1.0 3.1 21 ------- null}
- -t 0.184 -s 1 -d 2 -p cbr -e 1000 -c 2 -i 47 -a 2 -x {1.0 3.1 25 ------- null}
h -t 0.184 -s 1 -d 2 -p cbr -e 1000 -c 2 -i 47 -a 2 -x {1.0 3.1 -1 ------- null}
- -t 0.18488 -s 2 -d 3 -p cbr -e 400 -c 2 -i 22 -a 2 -x {1.0 3.1 20 ------- null}
h -t 0.18488 -s 2 -d 3 -p cbr -e 400 -c 2 -i 22 -a 2 -x {1.0 3.1 -1 ------- null}
- -t 0.185493333333333 -s 0 -d 2 -p tcp -e 1040 -c 1 -i 29 -a 1 -x {0.0 3.0 7 ------- null}
h -t 0.185493333333333 -s 0 -d 2 -p tcp -e 1040 -c 1 -i 29 -a 1 -x {0.0 3.0 -1 ------- null}
- -t 0.185946666666667 -s 2 -d 3 -p tcp -e 1040 -c 1 -i 25 -a 1 -x {0.0 3.0 3 ------- null}
h -t 0.185946666666667 -s 2 -d 3 -p tcp -e 1040 -c 1 -i 25 -a 1 -x {0.0 3.0 -1 ------- null}
r -t 0.186666666666667 -s 2 -d 3 -p cbr -e 1000 -c 2 -i 17 -a 2 -x {1.0 3.1 15 ------- null}
r -t 0.187173333333333 -s 0 -d 2 -p tcp -e 1040 -c 1 -i 26 -a 1 -x {0.0 3.0 4 ------- null}
+ -t 0.187173333333333 -s 2 -d 3 -p tcp -e 1040 -c 1 -i 26 -a 1 -x {0.0 3.0 4 ------- null}
r -t 0.188 -s 1 -d 2 -p cbr -e 1000 -c 2 -i 44 -a 2 -x {1.0 3.1 22 ------- null}
+ -t 0.188 -s 2 -d 3 -p cbr -e 1000 -c 2 -i 44 -a 2 -x {1.0 3.1 22 ------- null}
- -t 0.188 -s 1 -d 2 -p cbr -e 400 -c 2 -i 48 -a 2 -x {1.0 3.1 26 ------- null}
h -t 0.188 -s 1 -d 2 -p cbr -e 400 -c 2 -i 48 -a 2 -x {1.0 3.1 -1 ------- null}
- -t 0.18872 -s 2 -d 3 -p cbr -e 1000 -c 2 -i 43 -a 2 -x {1.0 3.1 21 ------- null}
h -t 0.18872 -s 2 -d 3 -p cbr -e 1000 -c 2 -i 43 -a 2 -x {1.0 3.1 -1 ------- null}
r -t 0.1896 -s 1 -d 2 -p cbr -e 400 -c 2 -i 45 -a 2 -x {1.0 3.1 23 ------- null}
+ -t 0.1896 -s 2 -d 3 -p cbr -e 400 -c 2 -i 45 -a 2 -x {1.0 3.1 23 ------- null}
- -t 0.189653333333333 -s 0 -d 2 -p tcp -e 1040 -c 1 -i 30 -a 1 -x {0.0 3.0 8 ------- null}
h -t 0.189653333333333 -s 0 -d 2 -p tcp -e 1040 -c 1 -i 30 -a 1 -x {0.0 3.0 -1 ------- null}
+ -t 0.19 -s 1 -d 2 -p cbr -e 1000 -c 2 -i 49 -a 2 -x {1.0 3.1 27 ------- null}
- -t 0.19 -s 1 -d 2 -p cbr -e 1000 -c 2 -i 49 -a 2 -x {1.0 3.1 27 ------- null}
h -t 0.19 -s 1 -d 2 -p cbr -e 1000 -c 2 -i 49 -a 2 -x {1.0 3.1 -1 ------- null}
+ -t 0.19 -s 1 -d 2 -p cbr -e 1000 -c 2 -i 50 -a 2 -x {1.0 3.1 28 ------- null}
+ -t 0.19 -s 1 -d 2 -p cbr -e 400 -c 2 -i 51 -a 2 -x {1.0 3.1 29 ------- null}
r -t 0.190666666666667 -s 2 -d 3 -p cbr -e 1000 -c 2 -i 18 -a 2 -x {1.0 3.1 16 ------- null}
r -t 0.191333333333333 -s 0 -d 2 -p tcp -e 1040 -c 1 -i 27 -a 1 -x {0.0 3.0 5 ------- null}
+ -t 0.191333333333333 -s 2 -d 3 -p tcp -e 1040 -c 1 -i 27 -a 1 -x {0.0 3.0 5 ------- null}
- -t 0.191386666666667 -s 2 -d 3 -p tcp -e 1040 -c 1 -i 26 -a 1 -x {0.0 3.0 4 ------- null}
h -t 0.191386666666667 -s 2 -d 3 -p tcp -e 1040 -c 1 -i 26 -a 1 -x {0.0 3.0 -1 ------- null}
r -t 0.191733333333333 -s 2 -d 3 -p cbr -e 400 -c 2 -i 19 -a 2 -x {1.0 3.1 17 ------- null}
- -t 0.193813333333333 -s 0 -d 2 -p tcp -e 1040 -c 1 -i 31 -a 1 -x {0.0 3.0 9 ------- null}
h -t 0.193813333333333 -s 0 -d 2 -p tcp -e 1040 -c 1 -i 31 -a 1 -x {0.0 3.0 -1 ------- null}
r -t 0.194 -s 1 -d 2 -p cbr -e 1000 -c 2 -i 46 -a 2 -x {1.0 3.1 24 ------- null}
+ -t 0.194 -s 2 -d 3 -p cbr -e 1000 -c 2 -i 46 -a 2 -x {1.0 3.1 24 ------- null}
- -t 0.194 -s 1 -d 2 -p cbr -e 1000 -c 2 -i 50 -a 2 -x {1.0 3.1 28 ------- null}
h -t 0.194 -s 1 -d 2 -p cbr -e 1000 -c 2 -i 50 -a 2 -x {1.0 3.1 -1 ------- null}
- -t 0.19416 -s 2 -d 3 -p cbr -e 1000 -c 2 -i 44 -a 2 -x {1.0 3.1 22 ------- null}
h -t 0.19416 -s 2 -d 3 -p cbr -e 1000 -c 2 -i 44 -a 2 -x {1.0 3.1 -1 ------- null}
r -t 0.195493333333333 -s 0 -d 2 -p tcp -e 1040 -c 1 -i 28 -a 1 -x {0.0 3.0 6 ------- null}
+ -t 0.195493333333333 -s 2 -d 3 -p tcp -e 1040 -c 1 -i 28 -a 1 -x {0.0 3.0 6 ------- null}
r -t 0.196666666666667 -s 2 -d 3 -p cbr -e 1000 -c 2 -i 20 -a 2 -x {1.0 3.1 18 ------- null}
- -t 0.196826666666667 -s 2 -d 3 -p cbr -e 400 -c 2 -i 45 -a 2 -x {1.0 3.1 23 ------- null}
h -t 0.196826666666667 -s 2 -d 3 -p cbr -e 400 -c 2 -i 45 -a 2 -x {1.0 3.1 -1 ------- null}
- -t 0.197893333333333 -s 2 -d 3 -p tcp -e 1040 -c 1 -i 27 -a 1 -x {0.0 3.0 5 ------- null}
h -t 0.197893333333333 -s 2 -d 3 -p tcp -e 1040 -c 1 -i 27 -a 1 -x {0.0 3.0 -1 ------- null}
- -t 0.197973333333333 -s 0 -d 2 -p tcp -e 1040 -c 1 -i 32 -a 1 -x {0.0 3.0 10 ------- null}
h -t 0.197973333333333 -s 0 -d 2 -p tcp -e 1040 -c 1 -i 32 -a 1 -x {0.0 3.0 -1 ------- null}
r -t 0.198 -s 1 -d 2 -p cbr -e 1000 -c 2 -i 47 -a 2 -x {1.0 3.1 25 ------- null}
+ -t 0.198 -s 2 -d 3 -p cbr -e 1000 -c 2 -i 47 -a 2 -x {1.0 3.1 25 ------- null}
- -t 0.198 -s 1 -d 2 -p cbr -e 400 -c 2 -i 51 -a 2 -x {1.0 3.1 29 ------- null}
h -t 0.198 -s 1 -d 2 -p cbr -e 400 -c 2 -i 51 -a 2 -x {1.0 3.1 -1 ------- null}
r -t 0.19944 -s 2 -d 3 -p tcp -e 1040 -c 1 -i 23 -a 1 -x {0.0 3.0 1 ------- null}
+ -t 0.19944 -s 3 -d 2 -p ack -e 40 -c 1 -i 52 -a 1 -x {3.0 0.0 1 ------- null}
- -t 0.19944 -s 3 -d 2 -p ack -e 40 -c 1 -i 52 -a 1 -x {3.0 0.0 1 ------- null}
h -t 0.19944 -s 3 -d 2 -p ack -e 40 -c 1 -i 52 -a 1 -x {3.0 0.0 -1 ------- null}
r -t 0.1996 -s 1 -d 2 -p cbr -e 400 -c 2 -i 48 -a 2 -x {1.0 3.1 26 ------- null}
+ -t 0.1996 -s 2 -d 3 -p cbr -e 400 -c 2 -i 48 -a 2 -x {1.0 3.1 26 ------- null}
r -t 0.199653333333333 -s 0 -d 2 -p tcp -e 1040 -c 1 -i 29 -a 1 -x {0.0 3.0 7 ------- null}
+ -t 0.199653333333333 -s 2 -d 3 -p tcp -e 1040 -c 1 -i 29 -a 1 -x {0.0 3.0 7 ------- null}
+ -t 0.2 -s 1 -d 2 -p cbr -e 1000 -c 2 -i 53 -a 2 -x {1.0 3.1 30 ------- null}
- -t 0.2 -s 1 -d 2 -p cbr -e 1000 -c 2 -i 53 -a 2 -x {1.0 3.1 30 ------- null}
h -t 0.2 -s 1 -d 2 -p cbr -e 1000 -c 2 -i 53 -a 2 -x {1.0 3.1 -1 ------- null}
+ -t 0.2 -s 1 -d 2 -p cbr -e 1000 -c 2 -i 54 -a 2 -x {1.0 3.1 31 ------- null}
+ -t 0.2 -s 1 -d 2 -p cbr -e 400 -c 2 -i 55 -a 2 -x {1.0 3.1 32 ------- null}
- -t 0.200666666666667 -s 2 -d 3 -p cbr -e 1000 -c 2 -i 46 -a 2 -x {1.0 3.1 24 ------- null}
h -t 0.200666666666667 -s 2 -d 3 -p cbr -e 1000 -c 2 -i 46 -a 2 -x {1.0 3.1 -1 ------- null}
r -t 0.202106666666667 -s 2 -d 3 -p cbr -e 1000 -c 2 -i 21 -a 2 -x {1.0 3.1 19 ------- null}
- -t 0.202133333333333 -s 0 -d 2 -p tcp -e 1040 -c 1 -i 33 -a 1 -x {0.0 3.0 11 ------- null}
h -t 0.202133333333333 -s 0 -d 2 -p tcp -e 1040 -c 1 -i 33 -a 1 -x {0.0 3.0 -1 ------- null}
- -t 0.203333333333333 -s 2 -d 3 -p tcp -e 1040 -c 1 -i 28 -a 1 -x {0.0 3.0 6 ------- null}
h -t 0.203333333333333 -s 2 -d 3 -p tcp -e 1040 -c 1 -i 28 -a 1 -x {0.0 3.0 -1 ------- null}
r -t 0.203813333333333 -s 0 -d 2 -p tcp -e 1040 -c 1 -i 30 -a 1 -x {0.0 3.0 8 ------- null}
+ -t 0.203813333333333 -s 2 -d 3 -p tcp -e 1040 -c 1 -i 30 -a 1 -x {0.0 3.0 8 ------- null}
r -t 0.204 -s 1 -d 2 -p cbr -e 1000 -c 2 -i 49 -a 2 -x {1.0 3.1 27 ------- null}
+ -t 0.204 -s 2 -d 3 -p cbr -e 1000 -c 2 -i 49 -a 2 -x {1.0 3.1 27 ------- null}
- -t 0.204 -s 1 -d 2 -p cbr -e 1000 -c 2 -i 54 -a 2 -x {1.0 3.1 31 ------- null}
h -t 0.204 -s 1 -d 2 -p cbr -e 1000 -c 2 -i 54 -a 2 -x {1.0 3.1 -1 ------- null}
r -t 0.20488 -s 2 -d 3 -p tcp -e 1040 -c 1 -i 24 -a 1 -x {0.0 3.0 2 ------- null}
+ -t 0.20488 -s 3 -d 2 -p ack -e 40 -c 1 -i 56 -a 1 -x {3.0 0.0 2 ------- null}
- -t 0.20488 -s 3 -d 2 -p ack -e 40 -c 1 -i 56 -a 1 -x {3.0 0.0 2 ------- null}
h -t 0.20488 -s 3 -d 2 -p ack -e 40 -c 1 -i 56 -a 1 -x {3.0 0.0 -1 ------- null}
r -t 0.205946666666667 -s 2 -d 3 -p cbr -e 400 -c 2 -i 22 -a 2 -x {1.0 3.1 20 ------- null}
- -t 0.206106666666667 -s 2 -d 3 -p cbr -e 1000 -c 2 -i 47 -a 2 -x {1.0 3.1 25 ------- null}
h -t 0.206106666666667 -s 2 -d 3 -p cbr -e 1000 -c 2 -i 47 -a 2 -x {1.0 3.1 -1 ------- null}
- -t 0.206293333333333 -s 0 -d 2 -p tcp -e 1040 -c 1 -i 34 -a 1 -x {0.0 3.0 12 ------- null}
h -t 0.206293333333333 -s 0 -d 2 -p tcp -e 1040 -c 1 -i 34 -a 1 -x {0.0 3.0 -1 ------- null}
r -t 0.207973333333333 -s 0 -d 2 -p tcp -e 1040 -c 1 -i 31 -a 1 -x {0.0 3.0 9 ------- null}
+ -t 0.207973333333333 -s 2 -d 3 -p tcp -e 1040 -c 1 -i 31 -a 1 -x {0.0 3.0 9 ------- null}
r -t 0.208 -s 1 -d 2 -p cbr -e 1000 -c 2 -i 50 -a 2 -x {1.0 3.1 28 ------- null}
+ -t 0.208 -s 2 -d 3 -p cbr -e 1000 -c 2 -i 50 -a 2 -x {1.0 3.1 28 ------- null}
- -t 0.208 -s 1 -d 2 -p cbr -e 400 -c 2 -i 55 -a 2 -x {1.0 3.1 32 ------- null}
h -t 0.208 -s 1 -d 2 -p cbr -e 400 -c 2 -i 55 -a 2 -x {1.0 3.1 -1 ------- null}
r -t 0.20872 -s 2 -d 3 -p tcp -e 1040 -c 1 -i 25 -a 1 -x {0.0 3.0 3 ------- null}
+ -t 0.20872 -s 3 -d 2 -p ack -e 40 -c 1 -i 57 -a 1 -x {3.0 0.0 3 ------- null}
- -t 0.20872 -s 3 -d 2 -p ack -e 40 -c 1 -i 57 -a 1 -x {3.0 0.0 3 ------- null}
h -t 0.20872 -s 3 -d 2 -p ack -e 40 -c 1 -i 57 -a 1 -x {3.0 0.0 -1 ------- null}
- -t 0.208773333333333 -s 2 -d 3 -p cbr -e 400 -c 2 -i 48 -a 2 -x {1.0 3.1 26 ------- null}
h -t 0.208773333333333 -s 2 -d 3 -p cbr -e 400 -c 2 -i 48 -a 2 -x {1.0 3.1 -1 ------- null}
r -t 0.2096 -s 1 -d 2 -p cbr -e 400 -c 2 -i 51 -a 2 -x {1.0 3.1 29 ------- null}
+ -t 0.2096 -s 2 -d 3 -p cbr -e 400 -c 2 -i 51 -a 2 -x {1.0 3.1 29 ------- null}
- -t 0.20984 -s 2 -d 3 -p tcp -e 1040 -c 1 -i 29 -a 1 -x {0.0 3.0 7 ------- null}
h -t 0.20984 -s 2 -d 3 -p tcp -e 1040 -c 1 -i 29 -a 1 -x {0.0 3.0 -1 ------- null}
+ -t 0.21 -s 1 -d 2 -p cbr -e 1000 -c 2 -i 58 -a 2 -x {1.0 3.1 33 ------- null}
- -t 0.21 -s 1 -d 2 -p cbr -e 1000 -c 2 -i 58 -a 2 -x {1.0 3.1 33 ------- null}
h -t 0.21 -s 1 -d 2 -p cbr -e 1000 -c 2 -i 58 -a 2 -x {1.0 3.1 -1 ------- null}
+ -t 0.21 -s 1 -d 2 -p cbr -e 1000 -c 2 -i 59 -a 2 -x {1.0 3.1 34 ------- null}
+ -t 0.21 -s 1 -d 2 -p cbr -e 400 -c 2 -i 60 -a 2 -x {1.0 3.1 35 ------- null}
- -t 0.210453333333333 -s 0 -d 2 -p tcp -e 1040 -c 1 -i 35 -a 1 -x {0.0 3.0 13 ------- null}
h -t 0.210453333333333 -s 0 -d 2 -p tcp -e 1040 -c 1 -i 35 -a 1 -x {0.0 3.0 -1 ------- null}
r -t 0.211386666666667 -s 2 -d 3 -p cbr -e 1000 -c 2 -i 43 -a 2 -x {1.0 3.1 21 ------- null}