+ 0.1 1 2 cbr 1000 ------- 2 1.0 3.1 0 0
- 0.1 1 2 cbr 1000 ------- 2 1.0 3.1 0 0
+ 0.1 1 2 cbr 1000 ------- 2 1.0 3.1 1 1
+ 0.1 1 2 cbr 400 ------- 2 1.0 3.1 2 2
+ 0.1 0 2 tcp 40 ------- 1 0.0 3.0 0 3
- 0.1 0 2 tcp 40 ------- 1 0.0 3.0 0 3
- 0.104 1 2 cbr 1000 ------- 2 1.0 3.1 1 1
- 0.108 1 2 cbr 400 ------- 2 1.0 3.1 2 2
+ 0.11 1 2 cbr 1000 ------- 2 1.0 3.1 3 4
- 0.11 1 2 cbr 1000 ------- 2 1.0 3.1 3 4
+ 0.11 1 2 cbr 1000 ------- 2 1.0 3.1 4 5
+ 0.11 1 2 cbr 400 ------- 2 1.0 3.1 5 6
r 0.11016 0 2 tcp 40 ------- 1 0.0 3.0 0 3
+ 0.11016 2 3 tcp 40 ------- 1 0.0 3.0 0 3
- 0.11016 2 3 tcp 40 ------- 1 0.0 3.0 0 3
r 0.114 1 2 cbr 1000 ------- 2 1.0 3.1 0 0
+ 0.114 2 3 cbr 1000 ------- 2 1.0 3.1 0 0
- 0.114 2 3 cbr 1000 ------- 2 1.0 3.1 0 0
- 0.114 1 2 cbr 1000 ------- 2 1.0 3.1 4 5
r 0.118 1 2 cbr 1000 ------- 2 1.0 3.1 1 1
+ 0.118 2 3 cbr 1000 ------- 2 1.0 3.1 1 1
- 0.118 2 3 cbr 1000 ------- 2 1.0 3.1 1 1
- 0.118 1 2 cbr 400 ------- 2 1.0 3.1 5 6
r 0.1196 1 2 cbr 400 ------- 2 1.0 3.1 2 2
+ 0.1196 2 3 cbr 400 ------- 2 1.0 3.1 2 2
+ 0.12 1 2 cbr 1000 ------- 2 1.0 3.1 6 7
- 0.12 1 2 cbr 1000 ------- 2 1.0 3.1 6 7
+ 0.12 1 2 cbr 1000 ------- 2 1.0 3.1 7 8
+ 0.12 1 2 cbr 400 ------- 2 1.0 3.1 8 9
- 0.120667 2 3 cbr 400 ------- 2 1.0 3.1 2 2
r 0.124 1 2 cbr 1000 ------- 2 1.0 3.1 3 4
+ 0.124 2 3 cbr 1000 ------- 2 1.0 3.1 3 4
- 0.124 2 3 cbr 1000 ------- 2 1.0 3.1 3 4
- 0.124 1 2 cbr 1000 ------- 2 1.0 3.1 7 8
r 0.128 1 2 cbr 1000 ------- 2 1.0 3.1 4 5
+ 0.128 2 3 cbr 1000 ------- 2 1.0 3.1 4 5
- 0.128 2 3 cbr 1000 ------- 2 1.0 3.1 4 5
- 0.128 1 2 cbr 400 ------- 2 1.0 3.1 8 9
r 0.1296 1 2 cbr 400 ------- 2 1.0 3.1 5 6
+ 0.1296 2 3 cbr 400 ------- 2 1.0 3.1 5 6
+ 0.13 1 2 cbr 1000 ------- 2 1.0 3.1 9 10
- 0.13 1 2 cbr 1000 ------- 2 1.0 3.1 9 10
+ 0.13 1 2 cbr 1000 ------- 2 1.0 3.1 10 11
+ 0.13 1 2 cbr 400 ------- 2 1.0 3.1 11 12
r 0.130267 2 3 tcp 40 ------- 1 0.0 3.0 0 3
+ 0.130267 3 2 ack 40 ------- 1 3.0 0.0 0 13
- 0.130267 3 2 ack 40 ------- 1 3.0 0.0 0 13
- 0.130667 2 3 cbr 400 ------- 2 1.0 3.1 5 6
r 0.134 1 2 cbr 1000 ------- 2 1.0 3.1 6 7
+ 0.134 2 3 cbr 1000 ------- 2 1.0 3.1 6 7
- 0.134 2 3 cbr 1000 ------- 2 1.0 3.1 6 7
- 0.134 1 2 cbr 1000 ------- 2 1.0 3.1 10 11
r 0.136667 2 3 cbr 1000 ------- 2 1.0 3.1 0 0
r 0.138 1 2 cbr 1000 ------- 2 1.0 3.1 7 8
+ 0.138 2 3 cbr 1000 ------- 2 1.0 3.1 7 8
- 0.138 2 3 cbr 1000 ------- 2 1.0 3.1 7 8
- 0.138 1 2 cbr 400 ------- 2 1.0 3.1 11 12
r 0.1396 1 2 cbr 400 ------- 2 1.0 3.1 8 9
+ 0.1396 2 3 cbr 400 ------- 2 1.0 3.1 8 9
+ 0.14 1 2 cbr 1000 ------- 2 1.0 3.1 12 14
- 0.14 1 2 cbr 1000 ------- 2 1.0 3.1 12 14
+ 0.14 1 2 cbr 1000 ------- 2 1.0 3.1 13 15
+ 0.14 1 2 cbr 400 ------- 2 1.0 3.1 14 16
r 0.140667 2 3 cbr 1000 ------- 2 1.0 3.1 1 1
- 0.140667 2 3 cbr 400 ------- 2 1.0 3.1 8 9
r 0.141733 2 3 cbr 400 ------- 2 1.0 3.1 2 2
r 0.144 1 2 cbr 1000 ------- 2 1.0 3.1 9 10
+ 0.144 2 3 cbr 1000 ------- 2 1.0 3.1 9 10
- 0.144 2 3 cbr 1000 ------- 2 1.0 3.1 9 10
- 0.144 1 2 cbr 1000 ------- 2 1.0 3.1 13 15
r 0.146667 2 3 cbr 1000 ------- 2 1.0 3.1 3 4
r 0.148 1 2 cbr 1000 ------- 2 1.0 3.1 10 11
+ 0.148 2 3 cbr 1000 ------- 2 1.0 3.1 10 11
- 0.148 2 3 cbr 1000 ------- 2 1.0 3.1 10 11
- 0.148 1 2 cbr 400 ------- 2 1.0 3.1 14 16
r 0.1496 1 2 cbr 400 ------- 2 1.0 3.1 11 12
+ 0.1496 2 3 cbr 400 ------- 2 1.0 3.1 11 12
+ 0.15 1 2 cbr 1000 ------- 2 1.0 3.1 15 17
- 0.15 1 2 cbr 1000 ------- 2 1.0 3.1 15 17
+ 0.15 1 2 cbr 1000 ------- 2 1.0 3.1 16 18
+ 0.15 1 2 cbr 400 ------- 2 1.0 3.1 17 19
r 0.150373 3 2 ack 40 ------- 1 3.0 0.0 0 13
+ 0.150373 2 0 ack 40 ------- 1 3.0 0.0 0 13
- 0.150373 2 0 ack 40 ------- 1 3.0 0.0 0 13
r 0.150667 2 3 cbr 1000 ------- 2 1.0 3.1 4 5
- 0.150667 2 3 cbr 400 ------- 2 1.0 3.1 11 12
r 0.151733 2 3 cbr 400 ------- 2 1.0 3.1 5 6
r 0.154 1 2 cbr 1000 ------- 2 1.0 3.1 12 14
+ 0.154 2 3 cbr 1000 ------- 2 1.0 3.1 12 14
- 0.154 2 3 cbr 1000 ------- 2 1.0 3.1 12 14
- 0.154 1 2 cbr 1000 ------- 2 1.0 3.1 16 18
r 0.156667 2 3 cbr 1000 ------- 2 1.0 3.1 6 7
r 0.158 1 2 cbr 1000 ------- 2 1.0 3.1 13 15
+ 0.158 2 3 cbr 1000 ------- 2 1.0 3.1 13 15
- 0.158 2 3 cbr 1000 ------- 2 1.0 3.1 13 15
- 0.158 1 2 cbr 400 ------- 2 1.0 3.1 17 19
r 0.1596 1 2 cbr 400 ------- 2 1.0 3.1 14 16
+ 0.1596 2 3 cbr 400 ------- 2 1.0 3.1 14 16
+ 0.16 1 2 cbr 1000 ------- 2 1.0 3.1 18 20
- 0.16 1 2 cbr 1000 ------- 2 1.0 3.1 18 20
+ 0.16 1 2 cbr 1000 ------- 2 1.0 3.1 19 21
+ 0.16 1 2 cbr 400 ------- 2 1.0 3.1 20 22
r 0.160533 2 0 ack 40 ------- 1 3.0 0.0 0 13
+ 0.160533 0 2 tcp 1040 ------- 1 0.0 3.0 1 23
- 0.160533 0 2 tcp 1040 ------- 1 0.0 3.0 1 23
+ 0.160533 0 2 tcp 1040 ------- 1 0.0 3.0 2 24
+ 0.160533 0 2 tcp 1040 ------- 1 0.0 3.0 3 25
+ 0.160533 0 2 tcp 1040 ------- 1 0.0 3.0 4 26
+ 0.160533 0 2 tcp 1040 ------- 1 0.0 3.0 5 27
+ 0.160533 0 2 tcp 1040 ------- 1 0.0 3.0 6 28
+ 0.160533 0 2 tcp 1040 ------- 1 0.0 3.0 7 29
+ 0.160533 0 2 tcp 1040 ------- 1 0.0 3.0 8 30
+ 0.160533 0 2 tcp 1040 ------- 1 0.0 3.0 9 31
+ 0.160533 0 2 tcp 1040 ------- 1 0.0 3.0 10 32
+ 0.160533 0 2 tcp 1040 ------- 1 0.0 3.0 11 33
+ 0.160533 0 2 tcp 1040 ------- 1 0.0 3.0 12 34
+ 0.160533 0 2 tcp 1040 ------- 1 0.0 3.0 13 35
+ 0.160533 0 2 tcp 1040 ------- 1 0.0 3.0 14 36
+ 0.160533 0 2 tcp 1040 ------- 1 0.0 3.0 15 37
+ 0.160533 0 2 tcp 1040 ------- 1 0.0 3.0 16 38
+ 0.160533 0 2 tcp 1040 ------- 1 0.0 3.0 17 39
+ 0.160533 0 2 tcp 1040 ------- 1 0.0 3.0 18 40
+ 0.160533 0 2 tcp 1040 ------- 1 0.0 3.0 19 41
+ 0.160533 0 2 tcp 1040 ------- 1 0.0 3.0 20 42
r 0.160667 2 3 cbr 1000 ------- 2 1.0 3.1 7 8
- 0.160667 2 3 cbr 400 ------- 2 1.0 3.1 14 16
r 0.161733 2 3 cbr 400 ------- 2 1.0 3.1 8 9
r 0.164 1 2 cbr 1000 ------- 2 1.0 3.1 15 17
+ 0.164 2 3 cbr 1000 ------- 2 1.0 3.1 15 17
- 0.164 2 3 cbr 1000 ------- 2 1.0 3.1 15 17
- 0.164 1 2 cbr 1000 ------- 2 1.0 3.1 19 21
- 0.164693 0 2 tcp 1040 ------- 1 0.0 3.0 2 24
r 0.166667 2 3 cbr 1000 ------- 2 1.0 3.1 9 10
r 0.168 1 2 cbr 1000 ------- 2 1.0 3.1 16 18
+ 0.168 2 3 cbr 1000 ------- 2 1.0 3.1 16 18
- 0.168 2 3 cbr 1000 ------- 2 1.0 3.1 16 18
- 0.168 1 2 cbr 400 ------- 2 1.0 3.1 20 22
- 0.168853 0 2 tcp 1040 ------- 1 0.0 3.0 3 25
r 0.1696 1 2 cbr 400 ------- 2 1.0 3.1 17 19
+ 0.1696 2 3 cbr 400 ------- 2 1.0 3.1 17 19
+ 0.17 1 2 cbr 1000 ------- 2 1.0 3.1 21 43
- 0.17 1 2 cbr 1000 ------- 2 1.0 3.1 21 43
+ 0.17 1 2 cbr 1000 ------- 2 1.0 3.1 22 44
+ 0.17 1 2 cbr 400 ------- 2 1.0 3.1 23 45
r 0.170667 2 3 cbr 1000 ------- 2 1.0 3.1 10 11
- 0.170667 2 3 cbr 400 ------- 2 1.0 3.1 17 19
r 0.171733 2 3 cbr 400 ------- 2 1.0 3.1 11 12
- 0.173013 0 2 tcp 1040 ------- 1 0.0 3.0 4 26
r 0.174 1 2 cbr 1000 ------- 2 1.0 3.1 18 20
+ 0.174 2 3 cbr 1000 ------- 2 1.0 3.1 18 20
- 0.174 2 3 cbr 1000 ------- 2 1.0 3.1 18 20
- 0.174 1 2 cbr 1000 ------- 2 1.0 3.1 22 44
r 0.174693 0 2 tcp 1040 ------- 1 0.0 3.0 1 23
+ 0.174693 2 3 tcp 1040 ------- 1 0.0 3.0 1 23
r 0.176667 2 3 cbr 1000 ------- 2 1.0 3.1 12 14
- 0.176667 2 3 tcp 1040 ------- 1 0.0 3.0 1 23
- 0.177173 0 2 tcp 1040 ------- 1 0.0 3.0 5 27
r 0.178 1 2 cbr 1000 ------- 2 1.0 3.1 19 21
+ 0.178 2 3 cbr 1000 ------- 2 1.0 3.1 19 21
- 0.178 1 2 cbr 400 ------- 2 1.0 3.1 23 45
r 0.178853 0 2 tcp 1040 ------- 1 0.0 3.0 2 24
+ 0.178853 2 3 tcp 1040 ------- 1 0.0 3.0 2 24
- 0.17944 2 3 cbr 1000 ------- 2 1.0 3.1 19 21
r 0.1796 1 2 cbr 400 ------- 2 1.0 3.1 20 22
+ 0.1796 2 3 cbr 400 ------- 2 1.0 3.1 20 22
+ 0.18 1 2 cbr 1000 ------- 2 1.0 3.1 24 46
- 0.18 1 2 cbr 1000 ------- 2 1.0 3.1 24 46
+ 0.18 1 2 cbr 1000 ------- 2 1.0 3.1 25 47
+ 0.18 1 2 cbr 400 ------- 2 1.0 3.1 26 48
r 0.180667 2 3 cbr 1000 ------- 2 1.0 3.1 13 15
- 0.181333 0 2 tcp 1040 ------- 1 0.0 3.0 6 28
r 0.181733 2 3 cbr 400 ------- 2 1.0 3.1 14 16
- 0.182107 2 3 tcp 1040 ------- 1 0.0 3.0 2 24
r 0.183013 0 2 tcp 1040 ------- 1 0.0 3.0 3 25
+ 0.183013 2 3 tcp 1040 ------- 1 0.0 3.0 3 25
r 0.184 1 2 cbr 1000 ------- 2 1.0 3.1 21 43
+ 0.184 2 3 cbr 1000 ------- 2 1.0 3.1 21 43
- 0.184 1 2 cbr 1000 ------- 2 1.0 3.1 25 47
- 0.18488 2 3 cbr 400 ------- 2 1.0 3.1 20 22
- 0.185493 0 2 tcp 1040 ------- 1 0.0 3.0 7 29
- 0.185947 2 3 tcp 1040 ------- 1 0.0 3.0 3 25
r 0.186667 2 3 cbr 1000 ------- 2 1.0 3.1 15 17
r 0.187173 0 2 tcp 1040 ------- 1 0.0 3.0 4 26
+ 0.187173 2 3 tcp 1040 ------- 1 0.0 3.0 4 26
r 0.188 1 2 cbr 1000 ------- 2 1.0 3.1 22 44
+ 0.188 2 3 cbr 1000 ------- 2 1.0 3.1 22 44
- 0.188 1 2 cbr 400 ------- 2 1.0 3.1 26 48
- 0.18872 2 3 cbr 1000 ------- 2 1.0 3.1 21 43
r 0.1896 1 2 cbr 400 ------- 2 1.0 3.1 23 45
+ 0.1896 2 3 cbr 400 ------- 2 1.0 3.1 23 45
- 0.189653 0 2 tcp 1040 ------- 1 0.0 3.0 8 30
+ 0.19 1 2 cbr 1000 ------- 2 1.0 3.1 27 49
- 0.19 1 2 cbr 1000 ------- 2 1.0 3.1 27 49
+ 0.19 1 2 cbr 1000 ------- 2 1.0 3.1 28 50
+ 0.19 1 2 cbr 400 ------- 2 1.0 3.1 29 51
r 0.190667 2 3 cbr 1000 ------- 2 1.0 3.1 16 18
r 0.191333 0 2 tcp 1040 ------- 1 0.0 3.0 5 27
+ 0.191333 2 3 tcp 1040 ------- 1 0.0 3.0 5 27
- 0.191387 2 3 tcp 1040 ------- 1 0.0 3.0 4 26
r 0.191733 2 3 cbr 400 ------- 2 1.0 3.1 17 19
- 0.193813 0 2 tcp 1040 ------- 1 0.0 3.0 9 31
r 0.194 1 2 cbr 1000 ------- 2 1.0 3.1 24 46
+ 0.194 2 3 cbr 1000 ------- 2 1.0 3.1 24 46
- 0.194 1 2 cbr 1000 ------- 2 1.0 3.1 28 50
- 0.19416 2 3 cbr 1000 ------- 2 1.0 3.1 22 44
r 0.195493 0 2 tcp 1040 ------- 1 0.0 3.0 6 28
+ 0.195493 2 3 tcp 1040 ------- 1 0.0 3.0 6 28
r 0.196667 2 3 cbr 1000 ------- 2 1.0 3.1 18 20
- 0.196827 2 3 cbr 400 ------- 2 1.0 3.1 23 45
- 0.197893 2 3 tcp 1040 ------- 1 0.0 3.0 5 27
- 0.197973 0 2 tcp 1040 ------- 1 0.0 3.0 10 32
r 0.198 1 2 cbr 1000 ------- 2 1.0 3.1 25 47
+ 0.198 2 3 cbr 1000 ------- 2 1.0 3.1 25 47
- 0.198 1 2 cbr 400 ------- 2 1.0 3.1 29 51
r 0.19944 2 3 tcp 1040 ------- 1 0.0 3.0 1 23
+ 0.19944 3 2 ack 40 ------- 1 3.0 0.0 1 52
- 0.19944 3 2 ack 40 ------- 1 3.0 0.0 1 52
r 0.1996 1 2 cbr 400 ------- 2 1.0 3.1 26 48
+ 0.1996 2 3 cbr 400 ------- 2 1.0 3.1 26 48
r 0.199653 0 2 tcp 1040 ------- 1 0.0 3.0 7 29
+ 0.199653 2 3 tcp 1040 ------- 1 0.0 3.0 7 29
+ 0.2 1 2 cbr 1000 ------- 2 1.0 3.1 30 53
- 0.2 1 2 cbr 1000 ------- 2 1.0 3.1 30 53
+ 0.2 1 2 cbr 1000 ------- 2 1.0 3.1 31 54
+ 0.2 1 2 cbr 400 ------- 2 1.0 3.1 32 55
- 0.200667 2 3 cbr 1000 ------- 2 1.0 3.1 24 46
r 0.202107 2 3 cbr 1000 ------- 2 1.0 3.1 19 21
- 0.202133 0 2 tcp 1040 ------- 1 0.0 3.0 11 33
- 0.203333 2 3 tcp 1040 ------- 1 0.0 3.0 6 28
r 0.203813 0 2 tcp 1040 ------- 1 0.0 3.0 8 30
+ 0.203813 2 3 tcp 1040 ------- 1 0.0 3.0 8 30
r 0.204 1 2 cbr 1000 ------- 2 1.0 3.1 27 49
+ 0.204 2 3 cbr 1000 ------- 2 1.0 3.1 27 49
- 0.204 1 2 cbr 1000 ------- 2 1.0 3.1 31 54
r 0.20488 2 3 tcp 1040 ------- 1 0.0 3.0 2 24
+ 0.20488 3 2 ack 40 ------- 1 3.0 0.0 2 56
- 0.20488 3 2 ack 40 ------- 1 3.0 0.0 2 56
r 0.205947 2 3 cbr 400 ------- 2 1.0 3.1 20 22
- 0.206107 2 3 cbr 1000 ------- 2 1.0 3.1 25 47
- 0.206293 0 2 tcp 1040 ------- 1 0.0 3.0 12 34
r 0.207973 0 2 tcp 1040 ------- 1 0.0 3.0 9 31
+ 0.207973 2 3 tcp 1040 ------- 1 0.0 3.0 9 31
r 0.208 1 2 cbr 1000 ------- 2 1.0 3.1 28 50
+ 0.208 2 3 cbr 1000 ------- 2 1.0 3.1 28 50
- 0.208 1 2 cbr 400 ------- 2 1.0 3.1 32 55
r 0.20872 2 3 tcp 1040 ------- 1 0.0 3.0 3 25
+ 0.20872 3 2 ack 40 ------- 1 3.0 0.0 3 57
- 0.20872 3 2 ack 40 ------- 1 3.0 0.0 3 57
- 0.208773 2 3 cbr 400 ------- 2 1.0 3.1 26 48
r 0.2096 1 2 cbr 400 ------- 2 1.0 3.1 29 51
+ 0.2096 2 3 cbr 400 ------- 2 1.0 3.1 29 51
- 0.20984 2 3 tcp 1040 ------- 1 0.0 3.0 7 29
+ 0.21 1 2 cbr 1000 ------- 2 1.0 3.1 33 58
- 0.21 1 2 cbr 1000 ------- 2 1.0 3.1 33 58
+ 0.21 1 2 cbr 1000 ------- 2 1.0 3.1 34 59
+ 0.21 1 2 cbr 400 ------- 2 1.0 3.1 35 60
- 0.210453 0 2 tcp 1040 ------- 1 0.0 3.0 13 35
r 0.211387 2 3 cbr 1000 ------- 2 1.0 3.1 21 43
r 0.212133 0 2 tcp 1040 ------- 1 0.0 3.0 10 32
+ 0.212133 2 3 tcp 1040 ------- 1 0.0 3.0 10 32
- 0.212613 2 3 tcp 1040 ------- 1 0.0 3.0 8 30
r 0.214 1 2 cbr 1000 ------- 2 1.0 3.1 30 53
+ 0.214 2 3 cbr 1000 ------- 2 1.0 3.1 30 53
- 0.214 1 2 cbr 1000 ------- 2 1.0 3.1 34 59
r 0.21416 2 3 tcp 1040 ------- 1 0.0 3.0 4 26
+ 0.21416 3 2 ack 40 ------- 1 3.0 0.0 4 61
- 0.21416 3 2 ack 40 ------- 1 3.0 0.0 4 61
- 0.214613 0 2 tcp 1040 ------- 1 0.0 3.0 14 36
- 0.215387 2 3 cbr 1000 ------- 2 1.0 3.1 27 49
r 0.216293 0 2 tcp 1040 ------- 1 0.0 3.0 11 33
+ 0.216293 2 3 tcp 1040 ------- 1 0.0 3.0 11 33
r 0.216827 2 3 cbr 1000 ------- 2 1.0 3.1 22 44
r 0.217893 2 3 cbr 400 ------- 2 1.0 3.1 23 45
r 0.218 1 2 cbr 1000 ------- 2 1.0 3.1 31 54
+ 0.218 2 3 cbr 1000 ------- 2 1.0 3.1 31 54
- 0.218 1 2 cbr 400 ------- 2 1.0 3.1 35 60
- 0.218053 2 3 tcp 1040 ------- 1 0.0 3.0 9 31
- 0.218773 0 2 tcp 1040 ------- 1 0.0 3.0 15 37
r 0.219547 3 2 ack 40 ------- 1 3.0 0.0 1 52
+ 0.219547 2 0 ack 40 ------- 1 3.0 0.0 1 52
- 0.219547 2 0 ack 40 ------- 1 3.0 0.0 1 52
r 0.2196 1 2 cbr 400 ------- 2 1.0 3.1 32 55
+ 0.2196 2 3 cbr 400 ------- 2 1.0 3.1 32 55
+ 0.22 1 2 cbr 1000 ------- 2 1.0 3.1 36 62
- 0.22 1 2 cbr 1000 ------- 2 1.0 3.1 36 62
+ 0.22 1 2 cbr 1000 ------- 2 1.0 3.1 37 63
+ 0.22 1 2 cbr 400 ------- 2 1.0 3.1 38 64
r 0.220453 0 2 tcp 1040 ------- 1 0.0 3.0 12 34
+ 0.220453 2 3 tcp 1040 ------- 1 0.0 3.0 12 34
r 0.220667 2 3 tcp 1040 ------- 1 0.0 3.0 5 27
+ 0.220667 3 2 ack 40 ------- 1 3.0 0.0 5 65
- 0.220667 3 2 ack 40 ------- 1 3.0 0.0 5 65
- 0.220827 2 3 cbr 1000 ------- 2 1.0 3.1 28 50
- 0.222933 0 2 tcp 1040 ------- 1 0.0 3.0 16 38
r 0.223333 2 3 cbr 1000 ------- 2 1.0 3.1 24 46
- 0.223493 2 3 cbr 400 ------- 2 1.0 3.1 29 51
r 0.224 1 2 cbr 1000 ------- 2 1.0 3.1 33 58
+ 0.224 2 3 cbr 1000 ------- 2 1.0 3.1 33 58
- 0.224 1 2 cbr 1000 ------- 2 1.0 3.1 37 63
- 0.22456 2 3 tcp 1040 ------- 1 0.0 3.0 10 32
r 0.224613 0 2 tcp 1040 ------- 1 0.0 3.0 13 35
+ 0.224613 2 3 tcp 1040 ------- 1 0.0 3.0 13 35
r 0.224987 3 2 ack 40 ------- 1 3.0 0.0 2 56
+ 0.224987 2 0 ack 40 ------- 1 3.0 0.0 2 56
- 0.224987 2 0 ack 40 ------- 1 3.0 0.0 2 56
r 0.226107 2 3 tcp 1040 ------- 1 0.0 3.0 6 28
+ 0.226107 3 2 ack 40 ------- 1 3.0 0.0 6 66
- 0.226107 3 2 ack 40 ------- 1 3.0 0.0 6 66
- 0.227093 0 2 tcp 1040 ------- 1 0.0 3.0 17 39
- 0.227333 2 3 cbr 1000 ------- 2 1.0 3.1 30 53
r 0.228 1 2 cbr 1000 ------- 2 1.0 3.1 34 59
+ 0.228 2 3 cbr 1000 ------- 2 1.0 3.1 34 59
- 0.228 1 2 cbr 400 ------- 2 1.0 3.1 38 64
r 0.228773 0 2 tcp 1040 ------- 1 0.0 3.0 14 36
+ 0.228773 2 3 tcp 1040 ------- 1 0.0 3.0 14 36
r 0.228773 2 3 cbr 1000 ------- 2 1.0 3.1 25 47
r 0.228827 3 2 ack 40 ------- 1 3.0 0.0 3 57
+ 0.228827 2 0 ack 40 ------- 1 3.0 0.0 3 57
- 0.228827 2 0 ack 40 ------- 1 3.0 0.0 3 57
r 0.2296 1 2 cbr 400 ------- 2 1.0 3.1 35 60
+ 0.2296 2 3 cbr 400 ------- 2 1.0 3.1 35 60
r 0.229707 2 0 ack 40 ------- 1 3.0 0.0 1 52
+ 0.229707 0 2 tcp 1040 ------- 1 0.0 3.0 21 67
r 0.22984 2 3 cbr 400 ------- 2 1.0 3.1 26 48
- 0.23 2 3 tcp 1040 ------- 1 0.0 3.0 11 33
+ 0.23 1 2 cbr 1000 ------- 2 1.0 3.1 39 68
- 0.23 1 2 cbr 1000 ------- 2 1.0 3.1 39 68
+ 0.23 1 2 cbr 1000 ------- 2 1.0 3.1 40 69
+ 0.23 1 2 cbr 400 ------- 2 1.0 3.1 41 70
- 0.231253 0 2 tcp 1040 ------- 1 0.0 3.0 18 40
r 0.232613 2 3 tcp 1040 ------- 1 0.0 3.0 7 29
+ 0.232613 3 2 ack 40 ------- 1 3.0 0.0 7 71
- 0.232613 3 2 ack 40 ------- 1 3.0 0.0 7 71
- 0.232773 2 3 cbr 1000 ------- 2 1.0 3.1 31 54
r 0.232933 0 2 tcp 1040 ------- 1 0.0 3.0 15 37
+ 0.232933 2 3 tcp 1040 ------- 1 0.0 3.0 15 37
r 0.234 1 2 cbr 1000 ------- 2 1.0 3.1 36 62
+ 0.234 2 3 cbr 1000 ------- 2 1.0 3.1 36 62
- 0.234 1 2 cbr 1000 ------- 2 1.0 3.1 40 69
r 0.234267 3 2 ack 40 ------- 1 3.0 0.0 4 61
+ 0.234267 2 0 ack 40 ------- 1 3.0 0.0 4 61
- 0.234267 2 0 ack 40 ------- 1 3.0 0.0 4 61
r 0.235147 2 0 ack 40 ------- 1 3.0 0.0 2 56
+ 0.235147 0 2 tcp 1040 ------- 1 0.0 3.0 22 72
r 0.235387 2 3 tcp 1040 ------- 1 0.0 3.0 8 30
+ 0.235387 3 2 ack 40 ------- 1 3.0 0.0 8 73
- 0.235387 3 2 ack 40 ------- 1 3.0 0.0 8 73
- 0.235413 0 2 tcp 1040 ------- 1 0.0 3.0 19 41
- 0.23544 2 3 cbr 400 ------- 2 1.0 3.1 32 55
- 0.236507 2 3 tcp 1040 ------- 1 0.0 3.0 12 34
r 0.237093 0 2 tcp 1040 ------- 1 0.0 3.0 16 38
+ 0.237093 2 3 tcp 1040 ------- 1 0.0 3.0 16 38
r 0.238 1 2 cbr 1000 ------- 2 1.0 3.1 37 63
+ 0.238 2 3 cbr 1000 ------- 2 1.0 3.1 37 63
- 0.238 1 2 cbr 400 ------- 2 1.0 3.1 41 70
r 0.238053 2 3 cbr 1000 ------- 2 1.0 3.1 27 49
r 0.238987 2 0 ack 40 ------- 1 3.0 0.0 3 57
+ 0.238987 0 2 tcp 1040 ------- 1 0.0 3.0 23 74
- 0.23928 2 3 cbr 1000 ------- 2 1.0 3.1 33 58
- 0.239573 0 2 tcp 1040 ------- 1 0.0 3.0 20 42
r 0.2396 1 2 cbr 400 ------- 2 1.0 3.1 38 64
+ 0.2396 2 3 cbr 400 ------- 2 1.0 3.1 38 64
+ 0.24 1 2 cbr 1000 ------- 2 1.0 3.1 42 75
- 0.24 1 2 cbr 1000 ------- 2 1.0 3.1 42 75
+ 0.24 1 2 cbr 1000 ------- 2 1.0 3.1 43 76
+ 0.24 1 2 cbr 400 ------- 2 1.0 3.1 44 77
r 0.240773 3 2 ack 40 ------- 1 3.0 0.0 5 65
+ 0.240773 2 0 ack 40 ------- 1 3.0 0.0 5 65
- 0.240773 2 0 ack 40 ------- 1 3.0 0.0 5 65
r 0.240827 2 3 tcp 1040 ------- 1 0.0 3.0 9 31
+ 0.240827 3 2 ack 40 ------- 1 3.0 0.0 9 78
- 0.240827 3 2 ack 40 ------- 1 3.0 0.0 9 78
r 0.241253 0 2 tcp 1040 ------- 1 0.0 3.0 17 39
+ 0.241253 2 3 tcp 1040 ------- 1 0.0 3.0 17 39
d 0.241253 2 3 tcp 1040 ------- 1 0.0 3.0 17 39
- 0.241947 2 3 tcp 1040 ------- 1 0.0 3.0 13 35
r 0.243493 2 3 cbr 1000 ------- 2 1.0 3.1 28 50
- 0.243733 0 2 tcp 1040 ------- 1 0.0 3.0 21 67
r 0.244 1 2 cbr 1000 ------- 2 1.0 3.1 39 68
+ 0.244 2 3 cbr 1000 ------- 2 1.0 3.1 39 68
- 0.244 1 2 cbr 1000 ------- 2 1.0 3.1 43 76
r 0.244427 2 0 ack 40 ------- 1 3.0 0.0 4 61
+ 0.244427 0 2 tcp 1040 ------- 1 0.0 3.0 24 79
r 0.24456 2 3 cbr 400 ------- 2 1.0 3.1 29 51
- 0.24472 2 3 cbr 1000 ------- 2 1.0 3.1 34 59
r 0.245413 0 2 tcp 1040 ------- 1 0.0 3.0 18 40
+ 0.245413 2 3 tcp 1040 ------- 1 0.0 3.0 18 40
r 0.246213 3 2 ack 40 ------- 1 3.0 0.0 6 66
+ 0.246213 2 0 ack 40 ------- 1 3.0 0.0 6 66
- 0.246213 2 0 ack 40 ------- 1 3.0 0.0 6 66
r 0.247333 2 3 tcp 1040 ------- 1 0.0 3.0 10 32
+ 0.247333 3 2 ack 40 ------- 1 3.0 0.0 10 80
- 0.247333 3 2 ack 40 ------- 1 3.0 0.0 10 80
- 0.247387 2 3 tcp 1040 ------- 1 0.0 3.0 14 36
- 0.247893 0 2 tcp 1040 ------- 1 0.0 3.0 22 72
r 0.248 1 2 cbr 1000 ------- 2 1.0 3.1 40 69
+ 0.248 2 3 cbr 1000 ------- 2 1.0 3.1 40 69
- 0.248 1 2 cbr 400 ------- 2 1.0 3.1 44 77
r 0.249573 0 2 tcp 1040 ------- 1 0.0 3.0 19 41
+ 0.249573 2 3 tcp 1040 ------- 1 0.0 3.0 19 41
d 0.249573 2 3 tcp 1040 ------- 1 0.0 3.0 19 41
r 0.2496 1 2 cbr 400 ------- 2 1.0 3.1 41 70
+ 0.2496 2 3 cbr 400 ------- 2 1.0 3.1 41 70
d 0.2496 2 3 cbr 400 ------- 2 1.0 3.1 41 70
r 0.25 2 3 cbr 1000 ------- 2 1.0 3.1 30 53
+ 0.25 1 2 cbr 1000 ------- 2 1.0 3.1 45 81
- 0.25 1 2 cbr 1000 ------- 2 1.0 3.1 45 81
+ 0.25 1 2 cbr 1000 ------- 2 1.0 3.1 46 82
+ 0.25 1 2 cbr 400 ------- 2 1.0 3.1 47 83
- 0.25016 2 3 cbr 400 ------- 2 1.0 3.1 35 60
r 0.250933 2 0 ack 40 ------- 1 3.0 0.0 5 65
+ 0.250933 0 2 tcp 1040 ------- 1 0.0 3.0 25 84
- 0.251227 2 3 tcp 1040 ------- 1 0.0 3.0 15 37
- 0.252053 0 2 tcp 1040 ------- 1 0.0 3.0 23 74
r 0.25272 3 2 ack 40 ------- 1 3.0 0.0 7 71
+ 0.25272 2 0 ack 40 ------- 1 3.0 0.0 7 71
- 0.25272 2 0 ack 40 ------- 1 3.0 0.0 7 71
r 0.252773 2 3 tcp 1040 ------- 1 0.0 3.0 11 33
+ 0.252773 3 2 ack 40 ------- 1 3.0 0.0 11 85
- 0.252773 3 2 ack 40 ------- 1 3.0 0.0 11 85
r 0.253733 0 2 tcp 1040 ------- 1 0.0 3.0 20 42
+ 0.253733 2 3 tcp 1040 ------- 1 0.0 3.0 20 42
- 0.254 2 3 cbr 1000 ------- 2 1.0 3.1 36 62
r 0.254 1 2 cbr 1000 ------- 2 1.0 3.1 42 75
+ 0.254 2 3 cbr 1000 ------- 2 1.0 3.1 42 75
- 0.254 1 2 cbr 1000 ------- 2 1.0 3.1 46 82
r 0.25544 2 3 cbr 1000 ------- 2 1.0 3.1 31 54
r 0.255493 3 2 ack 40 ------- 1 3.0 0.0 8 73
+ 0.255493 2 0 ack 40 ------- 1 3.0 0.0 8 73
- 0.255493 2 0 ack 40 ------- 1 3.0 0.0 8 73
- 0.256213 0 2 tcp 1040 ------- 1 0.0 3.0 24 79
r 0.256373 2 0 ack 40 ------- 1 3.0 0.0 6 66
+ 0.256373 0 2 tcp 1040 ------- 1 0.0 3.0 26 86
r 0.256507 2 3 cbr 400 ------- 2 1.0 3.1 32 55
- 0.256667 2 3 tcp 1040 ------- 1 0.0 3.0 16 38
r 0.257893 0 2 tcp 1040 ------- 1 0.0 3.0 21 67
+ 0.257893 2 3 tcp 1040 ------- 1 0.0 3.0 21 67
r 0.258 1 2 cbr 1000 ------- 2 1.0 3.1 43 76
+ 0.258 2 3 cbr 1000 ------- 2 1.0 3.1 43 76
- 0.258 1 2 cbr 400 ------- 2 1.0 3.1 47 83
r 0.25928 2 3 tcp 1040 ------- 1 0.0 3.0 12 34
+ 0.25928 3 2 ack 40 ------- 1 3.0 0.0 12 87
- 0.25928 3 2 ack 40 ------- 1 3.0 0.0 12 87
- 0.25944 2 3 cbr 1000 ------- 2 1.0 3.1 37 63
r 0.2596 1 2 cbr 400 ------- 2 1.0 3.1 44 77
+ 0.2596 2 3 cbr 400 ------- 2 1.0 3.1 44 77
+ 0.26 1 2 cbr 1000 ------- 2 1.0 3.1 48 88
- 0.26 1 2 cbr 1000 ------- 2 1.0 3.1 48 88
+ 0.26 1 2 cbr 1000 ------- 2 1.0 3.1 49 89
+ 0.26 1 2 cbr 400 ------- 2 1.0 3.1 50 90
- 0.260373 0 2 tcp 1040 ------- 1 0.0 3.0 25 84
r 0.260933 3 2 ack 40 ------- 1 3.0 0.0 9 78
+ 0.260933 2 0 ack 40 ------- 1 3.0 0.0 9 78
- 0.260933 2 0 ack 40 ------- 1 3.0 0.0 9 78
r 0.261947 2 3 cbr 1000 ------- 2 1.0 3.1 33 58
r 0.262053 0 2 tcp 1040 ------- 1 0.0 3.0 22 72
+ 0.262053 2 3 tcp 1040 ------- 1 0.0 3.0 22 72
d 0.262053 2 3 tcp 1040 ------- 1 0.0 3.0 22 72
- 0.262107 2 3 cbr 400 ------- 2 1.0 3.1 38 64
r 0.26288 2 0 ack 40 ------- 1 3.0 0.0 7 71
+ 0.26288 0 2 tcp 1040 ------- 1 0.0 3.0 27 91
- 0.263173 2 3 cbr 1000 ------- 2 1.0 3.1 39 68
r 0.264 1 2 cbr 1000 ------- 2 1.0 3.1 45 81
+ 0.264 2 3 cbr 1000 ------- 2 1.0 3.1 45 81
- 0.264 1 2 cbr 1000 ------- 2 1.0 3.1 49 89
- 0.264533 0 2 tcp 1040 ------- 1 0.0 3.0 26 86
r 0.26472 2 3 tcp 1040 ------- 1 0.0 3.0 13 35
+ 0.26472 3 2 ack 40 ------- 1 3.0 0.0 13 92
- 0.26472 3 2 ack 40 ------- 1 3.0 0.0 13 92
r 0.265653 2 0 ack 40 ------- 1 3.0 0.0 8 73
+ 0.265653 0 2 tcp 1040 ------- 1 0.0 3.0 28 93
- 0.26584 2 3 tcp 1040 ------- 1 0.0 3.0 18 40
r 0.266213 0 2 tcp 1040 ------- 1 0.0 3.0 23 74
+ 0.266213 2 3 tcp 1040 ------- 1 0.0 3.0 23 74
r 0.267387 2 3 cbr 1000 ------- 2 1.0 3.1 34 59
r 0.26744 3 2 ack 40 ------- 1 3.0 0.0 10 80
+ 0.26744 2 0 ack 40 ------- 1 3.0 0.0 10 80
- 0.26744 2 0 ack 40 ------- 1 3.0 0.0 10 80
r 0.268 1 2 cbr 1000 ------- 2 1.0 3.1 46 82
+ 0.268 2 3 cbr 1000 ------- 2 1.0 3.1 46 82
- 0.268 1 2 cbr 400 ------- 2 1.0 3.1 50 90
- 0.268613 2 3 cbr 1000 ------- 2 1.0 3.1 40 69
- 0.268693 0 2 tcp 1040 ------- 1 0.0 3.0 27 91
r 0.2696 1 2 cbr 400 ------- 2 1.0 3.1 47 83
+ 0.2696 2 3 cbr 400 ------- 2 1.0 3.1 47 83
+ 0.27 1 2 cbr 1000 ------- 2 1.0 3.1 51 94
- 0.27 1 2 cbr 1000 ------- 2 1.0 3.1 51 94
+ 0.27 1 2 cbr 1000 ------- 2 1.0 3.1 52 95
+ 0.27 1 2 cbr 400 ------- 2 1.0 3.1 53 96
r 0.27016 2 3 tcp 1040 ------- 1 0.0 3.0 14 36
+ 0.27016 3 2 ack 40 ------- 1 3.0 0.0 14 97
- 0.27016 3 2 ack 40 ------- 1 3.0 0.0 14 97
r 0.270373 0 2 tcp 1040 ------- 1 0.0 3.0 24 79
+ 0.270373 2 3 tcp 1040 ------- 1 0.0 3.0 24 79
d 0.270373 2 3 tcp 1040 ------- 1 0.0 3.0 24 79
r 0.271093 2 0 ack 40 ------- 1 3.0 0.0 9 78
+ 0.271093 0 2 tcp 1040 ------- 1 0.0 3.0 29 98
r 0.271227 2 3 cbr 400 ------- 2 1.0 3.1 35 60
- 0.27128 2 3 tcp 1040 ------- 1 0.0 3.0 20 42
- 0.272853 0 2 tcp 1040 ------- 1 0.0 3.0 28 93
r 0.27288 3 2 ack 40 ------- 1 3.0 0.0 11 85
+ 0.27288 2 0 ack 40 ------- 1 3.0 0.0 11 85
- 0.27288 2 0 ack 40 ------- 1 3.0 0.0 11 85
r 0.274 2 3 tcp 1040 ------- 1 0.0 3.0 15 37
+ 0.274 3 2 ack 40 ------- 1 3.0 0.0 15 99
- 0.274 3 2 ack 40 ------- 1 3.0 0.0 15 99
r 0.274 1 2 cbr 1000 ------- 2 1.0 3.1 48 88
+ 0.274 2 3 cbr 1000 ------- 2 1.0 3.1 48 88
- 0.274 1 2 cbr 1000 ------- 2 1.0 3.1 52 95
- 0.274053 2 3 cbr 1000 ------- 2 1.0 3.1 42 75
r 0.274533 0 2 tcp 1040 ------- 1 0.0 3.0 25 84
+ 0.274533 2 3 tcp 1040 ------- 1 0.0 3.0 25 84
r 0.276667 2 3 cbr 1000 ------- 2 1.0 3.1 36 62
- 0.27672 2 3 tcp 1040 ------- 1 0.0 3.0 21 67
- 0.277013 0 2 tcp 1040 ------- 1 0.0 3.0 29 98
r 0.2776 2 0 ack 40 ------- 1 3.0 0.0 10 80
+ 0.2776 0 2 tcp 1040 ------- 1 0.0 3.0 30 100
r 0.278 1 2 cbr 1000 ------- 2 1.0 3.1 49 89
+ 0.278 2 3 cbr 1000 ------- 2 1.0 3.1 49 89
- 0.278 1 2 cbr 400 ------- 2 1.0 3.1 53 96
r 0.278693 0 2 tcp 1040 ------- 1 0.0 3.0 26 86
+ 0.278693 2 3 tcp 1040 ------- 1 0.0 3.0 26 86
d 0.278693 2 3 tcp 1040 ------- 1 0.0 3.0 26 86
r 0.279387 3 2 ack 40 ------- 1 3.0 0.0 12 87
+ 0.279387 2 0 ack 40 ------- 1 3.0 0.0 12 87
- 0.279387 2 0 ack 40 ------- 1 3.0 0.0 12 87
r 0.27944 2 3 tcp 1040 ------- 1 0.0 3.0 16 38
+ 0.27944 3 2 ack 40 ------- 1 3.0 0.0 16 101
- 0.27944 3 2 ack 40 ------- 1 3.0 0.0 16 101
- 0.279493 2 3 cbr 1000 ------- 2 1.0 3.1 43 76
r 0.2796 1 2 cbr 400 ------- 2 1.0 3.1 50 90
+ 0.2796 2 3 cbr 400 ------- 2 1.0 3.1 50 90
+ 0.28 1 2 cbr 1000 ------- 2 1.0 3.1 54 102
- 0.28 1 2 cbr 1000 ------- 2 1.0 3.1 54 102
+ 0.28 1 2 cbr 1000 ------- 2 1.0 3.1 55 103
+ 0.28 1 2 cbr 400 ------- 2 1.0 3.1 56 104
- 0.281173 0 2 tcp 1040 ------- 1 0.0 3.0 30 100
r 0.282107 2 3 cbr 1000 ------- 2 1.0 3.1 37 63
- 0.28216 2 3 cbr 400 ------- 2 1.0 3.1 44 77
r 0.282853 0 2 tcp 1040 ------- 1 0.0 3.0 27 91
+ 0.282853 2 3 tcp 1040 ------- 1 0.0 3.0 27 91
r 0.28304 2 0 ack 40 ------- 1 3.0 0.0 11 85
+ 0.28304 0 2 tcp 1040 ------- 1 0.0 3.0 31 105
r 0.283173 2 3 cbr 400 ------- 2 1.0 3.1 38 64
- 0.283227 2 3 cbr 1000 ------- 2 1.0 3.1 45 81
r 0.284 1 2 cbr 1000 ------- 2 1.0 3.1 51 94
+ 0.284 2 3 cbr 1000 ------- 2 1.0 3.1 51 94
- 0.284 1 2 cbr 1000 ------- 2 1.0 3.1 55 103
r 0.284827 3 2 ack 40 ------- 1 3.0 0.0 13 92
+ 0.284827 2 0 ack 40 ------- 1 3.0 0.0 13 92
- 0.284827 2 0 ack 40 ------- 1 3.0 0.0 13 92
- 0.285333 0 2 tcp 1040 ------- 1 0.0 3.0 31 105
r 0.28584 2 3 cbr 1000 ------- 2 1.0 3.1 39 68
- 0.285893 2 3 tcp 1040 ------- 1 0.0 3.0 23 74
r 0.287013 0 2 tcp 1040 ------- 1 0.0 3.0 28 93
+ 0.287013 2 3 tcp 1040 ------- 1 0.0 3.0 28 93
r 0.288 1 2 cbr 1000 ------- 2 1.0 3.1 52 95
+ 0.288 2 3 cbr 1000 ------- 2 1.0 3.1 52 95
d 0.288 2 3 cbr 1000 ------- 2 1.0 3.1 52 95
- 0.288 1 2 cbr 400 ------- 2 1.0 3.1 56 104
r 0.288613 2 3 tcp 1040 ------- 1 0.0 3.0 18 40
+ 0.288613 3 2 ack 40 ------- 1 3.0 0.0 16 106
- 0.288613 3 2 ack 40 ------- 1 3.0 0.0 16 106
- 0.288667 2 3 cbr 1000 ------- 2 1.0 3.1 46 82
r 0.289547 2 0 ack 40 ------- 1 3.0 0.0 12 87
+ 0.289547 0 2 tcp 1040 ------- 1 0.0 3.0 32 107
- 0.289547 0 2 tcp 1040 ------- 1 0.0 3.0 32 107
r 0.2896 1 2 cbr 400 ------- 2 1.0 3.1 53 96
+ 0.2896 2 3 cbr 400 ------- 2 1.0 3.1 53 96
+ 0.29 1 2 cbr 1000 ------- 2 1.0 3.1 57 108
- 0.29 1 2 cbr 1000 ------- 2 1.0 3.1 57 108
+ 0.29 1 2 cbr 1000 ------- 2 1.0 3.1 58 109
+ 0.29 1 2 cbr 400 ------- 2 1.0 3.1 59 110
r 0.290267 3 2 ack 40 ------- 1 3.0 0.0 14 97
+ 0.290267 2 0 ack 40 ------- 1 3.0 0.0 14 97
- 0.290267 2 0 ack 40 ------- 1 3.0 0.0 14 97
r 0.291173 0 2 tcp 1040 ------- 1 0.0 3.0 29 98
+ 0.291173 2 3 tcp 1040 ------- 1 0.0 3.0 29 98
d 0.291173 2 3 tcp 1040 ------- 1 0.0 3.0 29 98
r 0.29128 2 3 cbr 1000 ------- 2 1.0 3.1 40 69
- 0.291333 2 3 cbr 400 ------- 2 1.0 3.1 47 83
- 0.2924 2 3 cbr 1000 ------- 2 1.0 3.1 48 88
r 0.294 1 2 cbr 1000 ------- 2 1.0 3.1 54 102
+ 0.294 2 3 cbr 1000 ------- 2 1.0 3.1 54 102
- 0.294 1 2 cbr 1000 ------- 2 1.0 3.1 58 109
r 0.294053 2 3 tcp 1040 ------- 1 0.0 3.0 20 42
+ 0.294053 3 2 ack 40 ------- 1 3.0 0.0 16 111
- 0.294053 3 2 ack 40 ------- 1 3.0 0.0 16 111
r 0.294107 3 2 ack 40 ------- 1 3.0 0.0 15 99
+ 0.294107 2 0 ack 40 ------- 1 3.0 0.0 15 99
- 0.294107 2 0 ack 40 ------- 1 3.0 0.0 15 99
r 0.294987 2 0 ack 40 ------- 1 3.0 0.0 13 92
+ 0.294987 0 2 tcp 1040 ------- 1 0.0 3.0 33 112
- 0.294987 0 2 tcp 1040 ------- 1 0.0 3.0 33 112
- 0.295067 2 3 tcp 1040 ------- 1 0.0 3.0 25 84
r 0.295333 0 2 tcp 1040 ------- 1 0.0 3.0 30 100
+ 0.295333 2 3 tcp 1040 ------- 1 0.0 3.0 30 100
r 0.29672 2 3 cbr 1000 ------- 2 1.0 3.1 42 75
- 0.29784 2 3 cbr 1000 ------- 2 1.0 3.1 49 89
r 0.298 1 2 cbr 1000 ------- 2 1.0 3.1 55 103
+ 0.298 2 3 cbr 1000 ------- 2 1.0 3.1 55 103
- 0.298 1 2 cbr 400 ------- 2 1.0 3.1 59 110
r 0.299493 2 3 tcp 1040 ------- 1 0.0 3.0 21 67
+ 0.299493 3 2 ack 40 ------- 1 3.0 0.0 16 113
- 0.299493 3 2 ack 40 ------- 1 3.0 0.0 16 113
r 0.299493 0 2 tcp 1040 ------- 1 0.0 3.0 31 105
+ 0.299493 2 3 tcp 1040 ------- 1 0.0 3.0 31 105
r 0.299547 3 2 ack 40 ------- 1 3.0 0.0 16 101
+ 0.299547 2 0 ack 40 ------- 1 3.0 0.0 16 101
- 0.299547 2 0 ack 40 ------- 1 3.0 0.0 16 101
r 0.2996 1 2 cbr 400 ------- 2 1.0 3.1 56 104
+ 0.2996 2 3 cbr 400 ------- 2 1.0 3.1 56 104
d 0.2996 2 3 cbr 400 ------- 2 1.0 3.1 56 104
+ 0.3 1 2 cbr 1000 ------- 2 1.0 3.1 60 114
- 0.3 1 2 cbr 1000 ------- 2 1.0 3.1 60 114
+ 0.3 1 2 cbr 1000 ------- 2 1.0 3.1 61 115
+ 0.3 1 2 cbr 400 ------- 2 1.0 3.1 62 116
r 0.300427 2 0 ack 40 ------- 1 3.0 0.0 14 97
+ 0.300427 0 2 tcp 1040 ------- 1 0.0 3.0 34 117
- 0.300427 0 2 tcp 1040 ------- 1 0.0 3.0 34 117
- 0.300507 2 3 cbr 400 ------- 2 1.0 3.1 50 90
- 0.301573 2 3 tcp 1040 ------- 1 0.0 3.0 27 91
r 0.30216 2 3 cbr 1000 ------- 2 1.0 3.1 43 76
r 0.303227 2 3 cbr 400 ------- 2 1.0 3.1 44 77
r 0.303707 0 2 tcp 1040 ------- 1 0.0 3.0 32 107
+ 0.303707 2 3 tcp 1040 ------- 1 0.0 3.0 32 107
r 0.304 1 2 cbr 1000 ------- 2 1.0 3.1 57 108
+ 0.304 2 3 cbr 1000 ------- 2 1.0 3.1 57 108
- 0.304 1 2 cbr 1000 ------- 2 1.0 3.1 61 115
r 0.304267 2 0 ack 40 ------- 1 3.0 0.0 15 99
+ 0.304267 0 2 tcp 1040 ------- 1 0.0 3.0 35 118
- 0.304347 2 3 cbr 1000 ------- 2 1.0 3.1 51 94
- 0.304587 0 2 tcp 1040 ------- 1 0.0 3.0 35 118
r 0.305893 2 3 cbr 1000 ------- 2 1.0 3.1 45 81
- 0.307013 2 3 tcp 1040 ------- 1 0.0 3.0 28 93
r 0.308 1 2 cbr 1000 ------- 2 1.0 3.1 58 109
+ 0.308 2 3 cbr 1000 ------- 2 1.0 3.1 58 109
- 0.308 1 2 cbr 400 ------- 2 1.0 3.1 62 116
r 0.308667 2 3 tcp 1040 ------- 1 0.0 3.0 23 74
+ 0.308667 3 2 ack 40 ------- 1 3.0 0.0 16 119
- 0.308667 3 2 ack 40 ------- 1 3.0 0.0 16 119
r 0.30872 3 2 ack 40 ------- 1 3.0 0.0 16 106
+ 0.30872 2 0 ack 40 ------- 1 3.0 0.0 16 106
- 0.30872 2 0 ack 40 ------- 1 3.0 0.0 16 106
r 0.309147 0 2 tcp 1040 ------- 1 0.0 3.0 33 112
+ 0.309147 2 3 tcp 1040 ------- 1 0.0 3.0 33 112
r 0.3096 1 2 cbr 400 ------- 2 1.0 3.1 59 110
+ 0.3096 2 3 cbr 400 ------- 2 1.0 3.1 59 110
d 0.3096 2 3 cbr 400 ------- 2 1.0 3.1 59 110
r 0.309707 2 0 ack 40 ------- 1 3.0 0.0 16 101
+ 0.309707 0 2 tcp 1040 ------- 1 0.0 3.0 36 120
- 0.309707 0 2 tcp 1040 ------- 1 0.0 3.0 36 120
- 0.309787 2 3 cbr 400 ------- 2 1.0 3.1 53 96
+ 0.31 1 2 cbr 1000 ------- 2 1.0 3.1 63 121
- 0.31 1 2 cbr 1000 ------- 2 1.0 3.1 63 121